
     Program PWSCF v.6.7MaX starts on 22Oct2024 at 14:47:27 

     This program is part of the open-source Quantum ESPRESSO suite
     for quantum simulation of materials; please cite
         "P. Giannozzi et al., J. Phys.:Condens. Matter 21 395502 (2009);
         "P. Giannozzi et al., J. Phys.:Condens. Matter 29 465901 (2017);
          URL http://www.quantum-espresso.org", 
     in publications or presentations arising from this work. More details at
     http://www.quantum-espresso.org/quote

     Parallel version (MPI), running on     1 processors

     MPI processes distributed on     1 nodes
     Waiting for input...
     Reading input from standard input

     Current dimensions of program PWSCF are:
     Max number of different atomic species (ntypx) = 10
     Max number of k-points (npk) =  40000
     Max angular momentum in pseudopotentials (lmaxx) =  3
     file Si.pbe-n-kjpaw_psl.1.0.0.UPF: wavefunction(s)  3S 3P renormalized

     Subspace diagonalization in iterative solution of the eigenvalue problem:
     a serial algorithm will be used

     Message from routine setup:
     using ibrav=0 with symmetry is DISCOURAGED, use correct ibrav instead

     G-vector sticks info
     --------------------
     sticks:   dense  smooth     PW     G-vecs:    dense   smooth      PW
     Sum        2407    1201    349               479095   169111   26569


     Title: 
     si.slab                                                                    


     bravais-lattice index     =            0
     lattice parameter (alat)  =       6.6141  a.u.
     unit-cell volume          =    1252.8276 (a.u.)^3
     number of atoms/cell      =            2
     number of atomic types    =            1
     number of electrons       =         8.00
     number of Kohn-Sham states=            8
     kinetic-energy cutoff     =     100.0000  Ry
     charge density cutoff     =     800.0000  Ry
     scf convergence threshold =      1.0E-08
     mixing beta               =       0.3000
     number of iterations used =            8  local-TF  mixing
     Exchange-correlation= SLA  PW   PBX  PBC
                           (   1   4   3   4   0   0   0)

     celldm(1)=   6.614055  celldm(2)=   0.000000  celldm(3)=   0.000000
     celldm(4)=   0.000000  celldm(5)=   0.000000  celldm(6)=   0.000000

     crystal axes: (cart. coord. in units of alat)
               a(1) = (   1.000000   0.000000   0.000000 )  
               a(2) = (   0.500000   0.866000   0.000000 )  
               a(3) = (   0.000000   0.000000   5.000000 )  

     reciprocal axes: (cart. coord. in units 2 pi/alat)
               b(1) = (  1.000000 -0.577367  0.000000 )  
               b(2) = (  0.000000  1.154734  0.000000 )  
               b(3) = (  0.000000  0.000000  0.200000 )  


     PseudoPot. # 1 for Si read from file:
     /home/ayan/pseudo_directory/Si.pbe-n-kjpaw_psl.1.0.0.UPF
     MD5 check sum: c39c59da582df4a0d9f10159256ea34e
     Pseudo is Projector augmented-wave + core cor, Zval =  4.0
     Generated using &quot;atomic&quot; code by A. Dal Corso  v.6.3
     Shape of augmentation charge: PSQ
     Using radial grid of 1141 points,  6 beta functions with: 
                l(1) =   0
                l(2) =   0
                l(3) =   1
                l(4) =   1
                l(5) =   2
                l(6) =   2
     Q(r) pseudized with 0 coefficients 


     atomic species   valence    mass     pseudopotential
        Si             4.00    28.08500     Si( 1.00)

      2 Sym. Ops. (no inversion) found


                                    s                        frac. trans.

      isym =  1     identity                                     

 cryst.   s( 1) = (     1          0          0      )
                  (     0          1          0      )
                  (     0          0          1      )

 cart.    s( 1) = (  1.0000000  0.0000000  0.0000000 )
                  (  0.0000000  1.0000000  0.0000000 )
                  (  0.0000000  0.0000000  1.0000000 )


      isym =  2     inv. 180 deg rotation - cart. axis [0,0,1]   

 cryst.   s( 2) = (     1          0          0      )
                  (     0          1          0      )
                  (     0          0         -1      )

 cart.    s( 2) = (  1.0000000  0.0000000  0.0000000 )
                  (  0.0000000  1.0000000  0.0000000 )
                  (  0.0000000  0.0000000 -1.0000000 )


   Cartesian axes

     site n.     atom                  positions (alat units)
         1           Si  tau(   1) = (   0.0000000   0.0000000   0.0000000  )
         2           Si  tau(   2) = (   0.4999800   0.2886378   0.0000000  )

   Crystallographic axes

     site n.     atom                  positions (cryst. coord.)
         1           Si  tau(   1) = (  0.0000000  0.0000000  0.0000000  )
         2           Si  tau(   2) = (  0.3333300  0.3333000  0.0000000  )

     number of k points=    20  Methfessel-Paxton smearing, width (Ry)=  0.0300
                       cart. coord. in units 2pi/alat
        k(    1) = (   0.0000000   0.0000000   0.0000000), wk =   0.0555556
        k(    2) = (   0.0000000   0.1924557   0.0000000), wk =   0.1111111
        k(    3) = (   0.0000000   0.3849115   0.0000000), wk =   0.1111111
        k(    4) = (   0.0000000  -0.5773672   0.0000000), wk =   0.0555556
        k(    5) = (   0.1666667  -0.0962279   0.0000000), wk =   0.1111111
        k(    6) = (   0.1666667   0.2886836   0.0000000), wk =   0.1111111
        k(    7) = (   0.1666667  -0.6735951   0.0000000), wk =   0.1111111
        k(    8) = (   0.3333333  -0.1924557   0.0000000), wk =   0.1111111
        k(    9) = (   0.3333333   0.0000000   0.0000000), wk =   0.1111111
        k(   10) = (   0.3333333  -0.7698229   0.0000000), wk =   0.1111111
        k(   11) = (   0.3333333  -0.5773672   0.0000000), wk =   0.1111111
        k(   12) = (  -0.5000000   0.2886836   0.0000000), wk =   0.0555556
        k(   13) = (  -0.5000000   0.4811393   0.0000000), wk =   0.1111111
        k(   14) = (  -0.1666667  -0.0962279   0.0000000), wk =   0.1111111
        k(   15) = (  -0.1666667   0.2886836   0.0000000), wk =   0.1111111
        k(   16) = (  -0.1666667  -0.6735951   0.0000000), wk =   0.1111111
        k(   17) = (  -0.3333333  -0.1924557   0.0000000), wk =   0.1111111
        k(   18) = (  -0.3333333  -0.7698229   0.0000000), wk =   0.1111111
        k(   19) = (   0.5000000   0.2886836   0.0000000), wk =   0.0555556
        k(   20) = (   0.5000000   0.4811393   0.0000000), wk =   0.1111111

                       cryst. coord.
        k(    1) = (   0.0000000   0.0000000   0.0000000), wk =   0.0555556
        k(    2) = (   0.0000000   0.1666667   0.0000000), wk =   0.1111111
        k(    3) = (   0.0000000   0.3333333   0.0000000), wk =   0.1111111
        k(    4) = (   0.0000000  -0.5000000   0.0000000), wk =   0.0555556
        k(    5) = (   0.1666667   0.0000000   0.0000000), wk =   0.1111111
        k(    6) = (   0.1666667   0.3333333   0.0000000), wk =   0.1111111
        k(    7) = (   0.1666667  -0.5000000   0.0000000), wk =   0.1111111
        k(    8) = (   0.3333333   0.0000000   0.0000000), wk =   0.1111111
        k(    9) = (   0.3333333   0.1666667   0.0000000), wk =   0.1111111
        k(   10) = (   0.3333333  -0.5000000   0.0000000), wk =   0.1111111
        k(   11) = (   0.3333333  -0.3333333   0.0000000), wk =   0.1111111
        k(   12) = (  -0.5000000  -0.0000000   0.0000000), wk =   0.0555556
        k(   13) = (  -0.5000000   0.1666667   0.0000000), wk =   0.1111111
        k(   14) = (  -0.1666667  -0.1666667   0.0000000), wk =   0.1111111
        k(   15) = (  -0.1666667   0.1666667   0.0000000), wk =   0.1111111
        k(   16) = (  -0.1666667  -0.6666667   0.0000000), wk =   0.1111111
        k(   17) = (  -0.3333333  -0.3333333   0.0000000), wk =   0.1111111
        k(   18) = (  -0.3333333  -0.8333333   0.0000000), wk =   0.1111111
        k(   19) = (   0.5000000   0.5000000   0.0000000), wk =   0.0555556
        k(   20) = (   0.5000000   0.6666667   0.0000000), wk =   0.1111111

     Dense  grid:   479095 G-vectors     FFT dimensions: (  60,  60, 300)

     Smooth grid:   169111 G-vectors     FFT dimensions: (  45,  45, 216)

     Dynamical RAM for                 wfc:       2.58 MB

     Dynamical RAM for     wfc (w. buffer):      54.23 MB

     Dynamical RAM for           str. fact:       7.31 MB

     Dynamical RAM for           local pot:       0.00 MB

     Dynamical RAM for          nlocal pot:      11.62 MB

     Dynamical RAM for                qrad:       2.27 MB

     Dynamical RAM for          rho,v,vnew:      46.65 MB

     Dynamical RAM for               rhoin:      15.55 MB

     Dynamical RAM for            rho*nmix:     116.97 MB

     Dynamical RAM for           G-vectors:      28.70 MB

     Dynamical RAM for          h,s,v(r/c):       0.00 MB

     Dynamical RAM for          <psi|beta>:       0.00 MB

     Dynamical RAM for      wfcinit/wfcrot:       5.17 MB

     Dynamical RAM for           addusdens:    1374.36 MB

     Dynamical RAM for          addusforce:    1392.64 MB

     Dynamical RAM for         addusstress:    1469.39 MB

     Estimated static dynamical RAM per process >     339.12 MB

     Estimated max dynamical RAM per process >       1.77 GB

     Initial potential from superposition of free atoms

     starting charge    7.99888, renormalised to    8.00000

     negative rho (up, down):  5.561E-05 0.000E+00
     Starting wfcs are    8 randomized atomic wfcs
     Checking if some PAW data can be deallocated... 

     total cpu time spent up to now is        4.8 secs

     Self-consistent Calculation

     iteration #  1     ecut=   100.00 Ry     beta= 0.30
     CG style diagonalization
     ethr =  1.00E-02,  avg # of iterations =  4.5

     total cpu time spent up to now is       23.5 secs

     total energy              =     -93.27532296 Ry
     estimated scf accuracy    <       0.13603987 Ry

     iteration #  2     ecut=   100.00 Ry     beta= 0.30
     CG style diagonalization
     ethr =  1.70E-03,  avg # of iterations =  3.0

     total cpu time spent up to now is       34.9 secs

     total energy              =     -93.23598011 Ry
     estimated scf accuracy    <       0.09367292 Ry

     iteration #  3     ecut=   100.00 Ry     beta= 0.30
     CG style diagonalization
     ethr =  1.17E-03,  avg # of iterations =  3.6

     total cpu time spent up to now is       48.9 secs

     total energy              =     -93.24895753 Ry
     estimated scf accuracy    <       0.00868141 Ry

     iteration #  4     ecut=   100.00 Ry     beta= 0.30
     CG style diagonalization
     c_bands:  1 eigenvalues not converged
     ethr =  1.09E-04,  avg # of iterations =  4.3

     total cpu time spent up to now is       63.3 secs

     total energy              =     -93.24829354 Ry
     estimated scf accuracy    <       0.00591746 Ry

     iteration #  5     ecut=   100.00 Ry     beta= 0.30
     CG style diagonalization
     ethr =  7.40E-05,  avg # of iterations =  3.1

     total cpu time spent up to now is       74.0 secs

     total energy              =     -93.24766159 Ry
     estimated scf accuracy    <       0.00325413 Ry

     iteration #  6     ecut=   100.00 Ry     beta= 0.30
     CG style diagonalization
     ethr =  4.07E-05,  avg # of iterations =  3.6

     negative rho (up, down):  2.709E-03 0.000E+00

     total cpu time spent up to now is       87.3 secs

     total energy              =     -93.24669684 Ry
     estimated scf accuracy    <       0.00204259 Ry

     iteration #  7     ecut=   100.00 Ry     beta= 0.30
     CG style diagonalization
     c_bands:  1 eigenvalues not converged
     c_bands:  1 eigenvalues not converged
     ethr =  2.55E-05,  avg # of iterations =  4.4

     negative rho (up, down):  5.254E-03 0.000E+00

     total cpu time spent up to now is      101.6 secs

     total energy              =     -93.24752855 Ry
     estimated scf accuracy    <       0.00092486 Ry

     iteration #  8     ecut=   100.00 Ry     beta= 0.30
     CG style diagonalization
     ethr =  1.16E-05,  avg # of iterations =  3.4

     negative rho (up, down):  5.566E-03 0.000E+00

     total cpu time spent up to now is      114.5 secs

     total energy              =     -93.24769272 Ry
     estimated scf accuracy    <       0.00051452 Ry

     iteration #  9     ecut=   100.00 Ry     beta= 0.30
     CG style diagonalization
     ethr =  6.43E-06,  avg # of iterations =  4.5

     negative rho (up, down):  4.587E-03 0.000E+00

     total cpu time spent up to now is      129.9 secs

     total energy              =     -93.24694375 Ry
     estimated scf accuracy    <       0.00079812 Ry

     iteration # 10     ecut=   100.00 Ry     beta= 0.30
     CG style diagonalization
     ethr =  6.43E-06,  avg # of iterations =  3.7

     negative rho (up, down):  2.352E-03 0.000E+00

     total cpu time spent up to now is      143.2 secs

     total energy              =     -93.24683072 Ry
     estimated scf accuracy    <       0.00029434 Ry

     iteration # 11     ecut=   100.00 Ry     beta= 0.30
     CG style diagonalization
     ethr =  3.68E-06,  avg # of iterations =  3.6

     negative rho (up, down):  7.943E-04 0.000E+00

     total cpu time spent up to now is      159.2 secs

     total energy              =     -93.24686842 Ry
     estimated scf accuracy    <       0.00000598 Ry

     iteration # 12     ecut=   100.00 Ry     beta= 0.30
     CG style diagonalization
     c_bands:  1 eigenvalues not converged
     c_bands:  1 eigenvalues not converged
     c_bands:  1 eigenvalues not converged
     ethr =  7.48E-08,  avg # of iterations =  4.3

     negative rho (up, down):  8.481E-05 0.000E+00

     total cpu time spent up to now is      180.6 secs

     total energy              =     -93.24686499 Ry
     estimated scf accuracy    <       0.00000264 Ry

     iteration # 13     ecut=   100.00 Ry     beta= 0.30
     CG style diagonalization
     c_bands:  1 eigenvalues not converged
     ethr =  3.31E-08,  avg # of iterations =  4.0

     negative rho (up, down):  7.368E-06 0.000E+00

     total cpu time spent up to now is      201.2 secs

     total energy              =     -93.24686444 Ry
     estimated scf accuracy    <       0.00000097 Ry

     iteration # 14     ecut=   100.00 Ry     beta= 0.30
     CG style diagonalization
     ethr =  1.22E-08,  avg # of iterations =  3.9

     negative rho (up, down):  4.597E-06 0.000E+00

     total cpu time spent up to now is      225.4 secs

     total energy              =     -93.24686520 Ry
     estimated scf accuracy    <       0.00000018 Ry

     iteration # 15     ecut=   100.00 Ry     beta= 0.30
     CG style diagonalization
     ethr =  2.29E-09,  avg # of iterations =  3.5

     negative rho (up, down):  7.418E-06 0.000E+00

     total cpu time spent up to now is      247.3 secs

     total energy              =     -93.24686520 Ry
     estimated scf accuracy    <       0.00000002 Ry

     iteration # 16     ecut=   100.00 Ry     beta= 0.30
     CG style diagonalization
     ethr =  2.26E-10,  avg # of iterations =  3.5

     negative rho (up, down):  5.671E-06 0.000E+00

     total cpu time spent up to now is      260.2 secs

     End of self-consistent calculation

          k = 0.0000 0.0000 0.0000 ( 21237 PWs)   bands (ev):

   -14.8665  -6.1609  -3.4727  -3.4715   0.5645   0.9295   0.9301   2.0678

     occupation numbers 
     1.0000   1.0000   1.0000   1.0000  -0.0000  -0.0000  -0.0000  -0.0000

          k = 0.0000 0.1925 0.0000 ( 21228 PWs)   bands (ev):

   -14.4595  -5.7668  -5.3604  -4.1088   0.3796   1.0188   2.3347   2.5104

     occupation numbers 
     1.0000   1.0000   1.0000   1.0000  -0.0000  -0.0000  -0.0000  -0.0000

          k = 0.0000 0.3849 0.0000 ( 21158 PWs)   bands (ev):

   -13.2762  -8.3300  -4.9368  -4.6212  -0.5532   0.4392   2.3160   5.4433

     occupation numbers 
     1.0000   1.0000   1.0000   1.0000  -0.0000  -0.0000  -0.0000  -0.0000

          k = 0.0000-0.5774 0.0000 ( 21120 PWs)   bands (ev):

   -11.9177 -10.3508  -5.2493  -3.3477  -1.5544  -0.9211   4.1004   4.7844

     occupation numbers 
     1.0000   1.0000   1.0000   1.0001  -0.0331  -0.0002  -0.0000  -0.0000

          k = 0.1667-0.0962 0.0000 ( 21228 PWs)   bands (ev):

   -14.4595  -5.7668  -5.3609  -4.1083   0.3800   1.0189   2.3347   2.5102

     occupation numbers 
     1.0000   1.0000   1.0000   1.0000  -0.0000  -0.0000  -0.0000  -0.0000

          k = 0.1667 0.2887 0.0000 ( 21165 PWs)   bands (ev):

   -13.6605  -7.1844  -5.5908  -4.9925   1.2879   1.5180   1.9021   2.6687

     occupation numbers 
     1.0000   1.0000   1.0000   1.0000  -0.0000  -0.0000  -0.0000  -0.0000

          k = 0.1667-0.6736 0.0000 ( 21111 PWs)   bands (ev):

   -12.1780  -9.5450  -6.6220  -3.5645  -0.8707   1.2107   3.0603   3.5638

     occupation numbers 
     1.0000   1.0000   1.0000   1.0000  -0.0001  -0.0000  -0.0000  -0.0000

          k = 0.3333-0.1925 0.0000 ( 21158 PWs)   bands (ev):

   -13.2762  -8.3303  -4.9362  -4.6213  -0.5527   0.4389   2.3157   3.8506

     occupation numbers 
     1.0000   1.0000   1.0000   1.0000  -0.0000  -0.0000  -0.0000  -0.0000

          k = 0.3333 0.0000 0.0000 ( 21167 PWs)   bands (ev):

   -13.6606  -7.1846  -5.5905  -4.9925   1.2885   1.5178   1.9021   2.6690

     occupation numbers 
     1.0000   1.0000   1.0000   1.0000  -0.0000  -0.0000  -0.0000  -0.0000

          k = 0.3333-0.7698 0.0000 ( 21111 PWs)   bands (ev):

   -12.1779  -9.5455  -6.6215  -3.5644  -0.8711   1.2115   3.0607   3.5637

     occupation numbers 
     1.0000   1.0000   1.0000   1.0000  -0.0001  -0.0000  -0.0000  -0.0000

          k = 0.3333-0.5774 0.0000 ( 21156 PWs)   bands (ev):

   -10.6857 -10.6853  -7.9169  -2.1217  -2.1213   1.7207   3.6198   4.8765

     occupation numbers 
     1.0000   1.0000   1.0000   0.5256   0.5247  -0.0000  -0.0000  -0.0000

          k =-0.5000 0.2887 0.0000 ( 21120 PWs)   bands (ev):

   -11.9177 -10.3511  -5.2488  -3.3477  -1.5547  -0.9206   4.1002   4.7833

     occupation numbers 
     1.0000   1.0000   1.0000   1.0001  -0.0332  -0.0002  -0.0000  -0.0000

          k =-0.5000 0.4811 0.0000 ( 21111 PWs)   bands (ev):

   -12.1781  -9.5452  -6.6216  -3.5645  -0.8709   1.2115   3.0606   3.5636

     occupation numbers 
     1.0000   1.0000   1.0000   1.0000  -0.0001  -0.0000  -0.0000  -0.0000

          k =-0.1667-0.0962 0.0000 ( 21228 PWs)   bands (ev):

   -14.4595  -5.7668  -5.3612  -4.1079   0.3802   1.0189   2.3343   2.5100

     occupation numbers 
     1.0000   1.0000   1.0000   1.0000  -0.0000  -0.0000  -0.0000  -0.0000

          k =-0.1667 0.2887 0.0000 ( 21165 PWs)   bands (ev):

   -13.6605  -7.1841  -5.5911  -4.9925   1.2874   1.5182   1.9020   2.6692

     occupation numbers 
     1.0000   1.0000   1.0000   1.0000  -0.0000  -0.0000  -0.0000  -0.0000

          k =-0.1667-0.6736 0.0000 ( 21111 PWs)   bands (ev):

   -12.1780  -9.5449  -6.6221  -3.5645  -0.8705   1.2107   3.0601   3.5638

     occupation numbers 
     1.0000   1.0000   1.0000   1.0000  -0.0001  -0.0000  -0.0000  -0.0000

          k =-0.3333-0.1925 0.0000 ( 21158 PWs)   bands (ev):

   -13.2762  -8.3306  -4.9360  -4.6212  -0.5525   0.4386   2.3157   3.8508

     occupation numbers 
     1.0000   1.0000   1.0000   1.0000  -0.0000  -0.0000  -0.0000  -0.0000

          k =-0.3333-0.7698 0.0000 ( 21111 PWs)   bands (ev):

   -12.1781  -9.5451  -6.6217  -3.5645  -0.8708   1.2113   3.0605   3.5638

     occupation numbers 
     1.0000   1.0000   1.0000   1.0000  -0.0001  -0.0000  -0.0000  -0.0000

          k = 0.5000 0.2887 0.0000 ( 21120 PWs)   bands (ev):

   -11.9174 -10.3516  -5.2485  -3.3474  -1.5552  -0.9204   4.1003   4.7836

     occupation numbers 
     1.0000   1.0000   1.0000   1.0001  -0.0332  -0.0002  -0.0000  -0.0000

          k = 0.5000 0.4811 0.0000 ( 21111 PWs)   bands (ev):

   -12.1780  -9.5455  -6.6215  -3.5644  -0.8712   1.2117   3.0607   3.5637

     occupation numbers 
     1.0000   1.0000   1.0000   1.0000  -0.0001  -0.0000  -0.0000  -0.0000

     the Fermi energy is    -2.1093 ev

!    total energy              =     -93.24686518 Ry

     total all-electron energy =     -1159.938595 Ry
     estimated scf accuracy    <          7.4E-10 Ry
     smearing contrib. (-TS)   =      -0.00062923 Ry
     internal energy E=F+TS    =     -93.24623595 Ry

     The total energy is F=E-TS. E is the sum of the following terms:
     one-electron contribution =     -83.23296836 Ry
     hartree contribution      =      43.13209218 Ry
     xc contribution           =     -12.53949531 Ry
     ewald contribution        =      30.65773696 Ry
     one-center paw contrib.   =     -71.26360141 Ry
      -> PAW hartree energy AE =       8.34267107 Ry
      -> PAW hartree energy PS =      -8.31379651 Ry
      -> PAW xc energy AE      =     -82.67504437 Ry
      -> PAW xc energy PS      =      11.38256840 Ry
      -> total E_H with PAW    =      43.16096673 Ry
      -> total E_XC with PAW   =     -83.83197128 Ry

     convergence has been achieved in  16 iterations

     negative rho (up, down):  5.671E-06 0.000E+00

     Forces acting on atoms (cartesian axes, Ry/au):

     atom    1 type  1   force =    -0.00010279   -0.00010712    0.00000000
     atom    2 type  1   force =     0.00010279    0.00010712    0.00000000
     The non-local contrib.  to forces
     atom    1 type  1   force =    -0.00008197   -0.00006453    0.00000000
     atom    2 type  1   force =     0.00007980    0.00006437    0.00000000
     The ionic contribution  to forces
     atom    1 type  1   force =    -0.00016939   -0.00012017   -0.00000000
     atom    2 type  1   force =     0.00016939    0.00012017   -0.00000000
     The local contribution  to forces
     atom    1 type  1   force =     0.00013750    0.00007026    0.00000000
     atom    2 type  1   force =    -0.00013754   -0.00007020    0.00000000
     The core correction contribution to forces
     atom    1 type  1   force =     0.00000930    0.00000736    0.00000000
     atom    2 type  1   force =    -0.00000910   -0.00000735    0.00000000
     The Hubbard contrib.    to forces
     atom    1 type  1   force =     0.00000000    0.00000000    0.00000000
     atom    2 type  1   force =     0.00000000    0.00000000    0.00000000
     The SCF correction term to forces
     atom    1 type  1   force =     0.00000081   -0.00000009    0.00000000
     atom    2 type  1   force =    -0.00000072    0.00000007    0.00000000

     Total force =     0.000210     Total SCF correction =     0.000001


     Computing stress (Cartesian axis) and pressure


     negative rho (up, down):  5.671E-06 0.000E+00
          total   stress  (Ry/bohr**3)                   (kbar)     P=       86.13
   0.00087841   0.00000015   0.00000000          129.22        0.02        0.00
   0.00000015   0.00087813   0.00000000            0.02      129.18        0.00
   0.00000000   0.00000000  -0.00000000            0.00        0.00       -0.00

     kinetic stress (kbar)    497.48     -0.01      0.00
                               -0.01    497.51      0.00
                                0.00      0.00    573.11

     local   stress (kbar) -10811.78     -0.05      0.00
                               -0.05 -10811.64      0.00
                                0.00      0.00  11163.19

     nonloc. stress (kbar)    419.49      0.01      0.00
                                0.01    419.46      0.00
                                0.00      0.00    326.25

     hartree stress (kbar)   5016.56      0.01     -0.00
                                0.01   5016.55     -0.00
                               -0.00     -0.00  -4968.61

     exc-cor stress (kbar)    633.91      0.00     -0.00
                                0.00    633.91      0.00
                               -0.00      0.00    624.77

     corecor stress (kbar)   -861.20     -0.00      0.00
                               -0.00   -861.20      0.00
                                0.00      0.00   -849.14

     ewald   stress (kbar)   5234.76      0.07     -0.00
                                0.07   5234.59     -0.00
                               -0.00     -0.00  -6869.57

     hubbard stress (kbar)      0.00      0.00      0.00
                                0.00      0.00      0.00
                                0.00      0.00      0.00

     DFT-D   stress (kbar)      0.00      0.00      0.00
                                0.00      0.00      0.00
                                0.00      0.00      0.00

     XDM     stress (kbar)      0.00      0.00      0.00
                                0.00      0.00      0.00
                                0.00      0.00      0.00

     dft-nl  stress (kbar)      0.00      0.00      0.00
                                0.00      0.00      0.00
                                0.00      0.00      0.00

     TS-vdW  stress (kbar)      0.00      0.00      0.00
                                0.00      0.00      0.00
                                0.00      0.00      0.00



     Writing output data file ./outputs/si.slab.save/

     init_run     :      4.29s CPU      4.75s WALL (       1 calls)
     electrons    :    232.64s CPU    255.38s WALL (       1 calls)
     forces       :      2.99s CPU      3.41s WALL (       1 calls)
     stress       :      9.67s CPU     11.01s WALL (       1 calls)

     Called by init_run:
     wfcinit      :      1.84s CPU      1.86s WALL (       1 calls)
     wfcinit:atom :      0.04s CPU      0.04s WALL (      20 calls)
     wfcinit:wfcr :      1.61s CPU      1.62s WALL (      20 calls)
     potinit      :      0.78s CPU      0.83s WALL (       1 calls)
     hinit0       :      0.87s CPU      0.88s WALL (       1 calls)

     Called by electrons:
     c_bands      :    130.56s CPU    130.99s WALL (      16 calls)
     sum_band     :     30.64s CPU     44.00s WALL (      16 calls)
     v_of_rho     :      5.39s CPU      5.62s WALL (      17 calls)
     v_h          :      0.39s CPU      0.40s WALL (      17 calls)
     v_xc         :      5.51s CPU      5.76s WALL (      19 calls)
     newd         :     12.62s CPU     21.47s WALL (      17 calls)
     PAW_pot      :      3.12s CPU      3.13s WALL (      17 calls)
     mix_rho      :     50.90s CPU     51.16s WALL (      16 calls)

     Called by c_bands:
     init_us_2    :      2.36s CPU      2.38s WALL (     700 calls)
     ccgdiagg     :    103.33s CPU    103.67s WALL (     320 calls)
     wfcrot       :     27.48s CPU     27.56s WALL (     320 calls)

     Called by sum_band:
     sum_band:wei :      0.00s CPU      0.00s WALL (      16 calls)
     sum_band:loo :     13.40s CPU     13.46s WALL (      16 calls)
     sum_band:buf :      0.09s CPU      0.09s WALL (     320 calls)
     sum_band:ini :      1.09s CPU      1.09s WALL (     320 calls)
     sum_band:cal :      2.85s CPU      2.85s WALL (     320 calls)
     sum_band:bec :      0.00s CPU      0.00s WALL (     320 calls)
     addusdens    :     16.51s CPU     29.74s WALL (      16 calls)
     addusd:skk   :      0.04s CPU      0.04s WALL (      16 calls)
     addusd:dgemm :      5.25s CPU     17.42s WALL (      16 calls)
     addusd:qvan2 :     10.20s CPU     10.22s WALL (      16 calls)

     Called by *cgdiagg:
     h_psi        :     96.00s CPU     96.28s WALL (    7642 calls)
     s_psi        :     19.47s CPU     19.58s WALL (   14964 calls)

     Called by h_psi:
     h_psi:calbec :     11.75s CPU     11.78s WALL (    7642 calls)
     vloc_psi     :     72.08s CPU     72.30s WALL (    7642 calls)
     add_vuspsi   :     11.79s CPU     11.84s WALL (    7642 calls)
     hs_1psi      :     81.65s CPU     81.90s WALL (    7322 calls)
     s_1psi       :     16.55s CPU     16.61s WALL (    7322 calls)

     General routines
     calbec       :     23.49s CPU     23.59s WALL (   15384 calls)
     fft          :      3.88s CPU      3.93s WALL (     244 calls)
     ffts         :     25.80s CPU     25.93s WALL (    5392 calls)
     fftw         :     67.86s CPU     68.09s WALL (   22324 calls)
     interpolate  :      0.40s CPU      0.40s WALL (      17 calls)

     Parallel routines

     PAW routines
     PAW_pot      :      3.12s CPU      3.13s WALL (      17 calls)
     PAW_symme    :      0.00s CPU      0.00s WALL (      33 calls)

     PWSCF        :   4m 9.68s CPU   4m34.75s WALL


   This run was terminated on:  14:52: 2  22Oct2024            

=------------------------------------------------------------------------------=
   JOB DONE.
=------------------------------------------------------------------------------=
