
     Program PWSCF v.6.7MaX starts on 22Oct2024 at 14:57:14 

     This program is part of the open-source Quantum ESPRESSO suite
     for quantum simulation of materials; please cite
         "P. Giannozzi et al., J. Phys.:Condens. Matter 21 395502 (2009);
         "P. Giannozzi et al., J. Phys.:Condens. Matter 29 465901 (2017);
          URL http://www.quantum-espresso.org", 
     in publications or presentations arising from this work. More details at
     http://www.quantum-espresso.org/quote

     Parallel version (MPI), running on     1 processors

     MPI processes distributed on     1 nodes
     Waiting for input...
     Reading input from standard input

     Current dimensions of program PWSCF are:
     Max number of different atomic species (ntypx) = 10
     Max number of k-points (npk) =  40000
     Max angular momentum in pseudopotentials (lmaxx) =  3
     file Si.pbe-n-kjpaw_psl.1.0.0.UPF: wavefunction(s)  3S 3P renormalized

     Subspace diagonalization in iterative solution of the eigenvalue problem:
     a serial algorithm will be used

     Message from routine setup:
     using ibrav=0 with symmetry is DISCOURAGED, use correct ibrav instead

     G-vector sticks info
     --------------------
     sticks:   dense  smooth     PW     G-vecs:    dense   smooth      PW
     Sum        2773    1393    397               588583   208257   32233


     Title: 
     si.slab                                                                    


     bravais-lattice index     =            0
     lattice parameter (alat)  =       7.0865  a.u.
     unit-cell volume          =    1540.9231 (a.u.)^3
     number of atoms/cell      =            2
     number of atomic types    =            1
     number of electrons       =         8.00
     number of Kohn-Sham states=            8
     kinetic-energy cutoff     =     100.0000  Ry
     charge density cutoff     =     800.0000  Ry
     scf convergence threshold =      1.0E-08
     mixing beta               =       0.3000
     number of iterations used =            8  local-TF  mixing
     Exchange-correlation= SLA  PW   PBX  PBC
                           (   1   4   3   4   0   0   0)

     celldm(1)=   7.086487  celldm(2)=   0.000000  celldm(3)=   0.000000
     celldm(4)=   0.000000  celldm(5)=   0.000000  celldm(6)=   0.000000

     crystal axes: (cart. coord. in units of alat)
               a(1) = (   1.000000   0.000000   0.000000 )  
               a(2) = (   0.500000   0.866000   0.000000 )  
               a(3) = (   0.000000   0.000000   5.000000 )  

     reciprocal axes: (cart. coord. in units 2 pi/alat)
               b(1) = (  1.000000 -0.577367  0.000000 )  
               b(2) = (  0.000000  1.154734  0.000000 )  
               b(3) = (  0.000000  0.000000  0.200000 )  


     PseudoPot. # 1 for Si read from file:
     /home/ayan/pseudo_directory/Si.pbe-n-kjpaw_psl.1.0.0.UPF
     MD5 check sum: c39c59da582df4a0d9f10159256ea34e
     Pseudo is Projector augmented-wave + core cor, Zval =  4.0
     Generated using &quot;atomic&quot; code by A. Dal Corso  v.6.3
     Shape of augmentation charge: PSQ
     Using radial grid of 1141 points,  6 beta functions with: 
                l(1) =   0
                l(2) =   0
                l(3) =   1
                l(4) =   1
                l(5) =   2
                l(6) =   2
     Q(r) pseudized with 0 coefficients 


     atomic species   valence    mass     pseudopotential
        Si             4.00    28.08500     Si( 1.00)

      2 Sym. Ops. (no inversion) found


                                    s                        frac. trans.

      isym =  1     identity                                     

 cryst.   s( 1) = (     1          0          0      )
                  (     0          1          0      )
                  (     0          0          1      )

 cart.    s( 1) = (  1.0000000  0.0000000  0.0000000 )
                  (  0.0000000  1.0000000  0.0000000 )
                  (  0.0000000  0.0000000  1.0000000 )


      isym =  2     inv. 180 deg rotation - cart. axis [0,0,1]   

 cryst.   s( 2) = (     1          0          0      )
                  (     0          1          0      )
                  (     0          0         -1      )

 cart.    s( 2) = (  1.0000000  0.0000000  0.0000000 )
                  (  0.0000000  1.0000000  0.0000000 )
                  (  0.0000000  0.0000000 -1.0000000 )


   Cartesian axes

     site n.     atom                  positions (alat units)
         1           Si  tau(   1) = (   0.0000000   0.0000000   0.0000000  )
         2           Si  tau(   2) = (   0.4999800   0.2886378   0.0000000  )

   Crystallographic axes

     site n.     atom                  positions (cryst. coord.)
         1           Si  tau(   1) = (  0.0000000  0.0000000  0.0000000  )
         2           Si  tau(   2) = (  0.3333300  0.3333000  0.0000000  )

     number of k points=    20  Methfessel-Paxton smearing, width (Ry)=  0.0300
                       cart. coord. in units 2pi/alat
        k(    1) = (   0.0000000   0.0000000   0.0000000), wk =   0.0555556
        k(    2) = (   0.0000000   0.1924557   0.0000000), wk =   0.1111111
        k(    3) = (   0.0000000   0.3849115   0.0000000), wk =   0.1111111
        k(    4) = (   0.0000000  -0.5773672   0.0000000), wk =   0.0555556
        k(    5) = (   0.1666667  -0.0962279   0.0000000), wk =   0.1111111
        k(    6) = (   0.1666667   0.2886836   0.0000000), wk =   0.1111111
        k(    7) = (   0.1666667  -0.6735951   0.0000000), wk =   0.1111111
        k(    8) = (   0.3333333  -0.1924557   0.0000000), wk =   0.1111111
        k(    9) = (   0.3333333   0.0000000   0.0000000), wk =   0.1111111
        k(   10) = (   0.3333333  -0.7698229   0.0000000), wk =   0.1111111
        k(   11) = (   0.3333333  -0.5773672   0.0000000), wk =   0.1111111
        k(   12) = (  -0.5000000   0.2886836   0.0000000), wk =   0.0555556
        k(   13) = (  -0.5000000   0.4811393   0.0000000), wk =   0.1111111
        k(   14) = (  -0.1666667  -0.0962279   0.0000000), wk =   0.1111111
        k(   15) = (  -0.1666667   0.2886836   0.0000000), wk =   0.1111111
        k(   16) = (  -0.1666667  -0.6735951   0.0000000), wk =   0.1111111
        k(   17) = (  -0.3333333  -0.1924557   0.0000000), wk =   0.1111111
        k(   18) = (  -0.3333333  -0.7698229   0.0000000), wk =   0.1111111
        k(   19) = (   0.5000000   0.2886836   0.0000000), wk =   0.0555556
        k(   20) = (   0.5000000   0.4811393   0.0000000), wk =   0.1111111

                       cryst. coord.
        k(    1) = (   0.0000000   0.0000000   0.0000000), wk =   0.0555556
        k(    2) = (   0.0000000   0.1666667   0.0000000), wk =   0.1111111
        k(    3) = (   0.0000000   0.3333333   0.0000000), wk =   0.1111111
        k(    4) = (   0.0000000  -0.5000000   0.0000000), wk =   0.0555556
        k(    5) = (   0.1666667   0.0000000   0.0000000), wk =   0.1111111
        k(    6) = (   0.1666667   0.3333333   0.0000000), wk =   0.1111111
        k(    7) = (   0.1666667  -0.5000000   0.0000000), wk =   0.1111111
        k(    8) = (   0.3333333   0.0000000   0.0000000), wk =   0.1111111
        k(    9) = (   0.3333333   0.1666667   0.0000000), wk =   0.1111111
        k(   10) = (   0.3333333  -0.5000000   0.0000000), wk =   0.1111111
        k(   11) = (   0.3333333  -0.3333333   0.0000000), wk =   0.1111111
        k(   12) = (  -0.5000000  -0.0000000   0.0000000), wk =   0.0555556
        k(   13) = (  -0.5000000   0.1666667   0.0000000), wk =   0.1111111
        k(   14) = (  -0.1666667  -0.1666667   0.0000000), wk =   0.1111111
        k(   15) = (  -0.1666667   0.1666667   0.0000000), wk =   0.1111111
        k(   16) = (  -0.1666667  -0.6666667   0.0000000), wk =   0.1111111
        k(   17) = (  -0.3333333  -0.3333333   0.0000000), wk =   0.1111111
        k(   18) = (  -0.3333333  -0.8333333   0.0000000), wk =   0.1111111
        k(   19) = (   0.5000000   0.5000000   0.0000000), wk =   0.0555556
        k(   20) = (   0.5000000   0.6666667   0.0000000), wk =   0.1111111

     Dense  grid:   588583 G-vectors     FFT dimensions: (  64,  64, 320)

     Smooth grid:   208257 G-vectors     FFT dimensions: (  45,  45, 225)

     Dynamical RAM for                 wfc:       3.18 MB

     Dynamical RAM for     wfc (w. buffer):      66.70 MB

     Dynamical RAM for           str. fact:       8.98 MB

     Dynamical RAM for           local pot:       0.00 MB

     Dynamical RAM for          nlocal pot:      14.29 MB

     Dynamical RAM for                qrad:       2.27 MB

     Dynamical RAM for          rho,v,vnew:      56.94 MB

     Dynamical RAM for               rhoin:      18.98 MB

     Dynamical RAM for            rho*nmix:     143.70 MB

     Dynamical RAM for           G-vectors:      35.27 MB

     Dynamical RAM for          h,s,v(r/c):       0.00 MB

     Dynamical RAM for          <psi|beta>:       0.00 MB

     Dynamical RAM for      wfcinit/wfcrot:       6.35 MB

     Dynamical RAM for           addusdens:    1688.44 MB

     Dynamical RAM for          addusforce:    1710.90 MB

     Dynamical RAM for         addusstress:    1805.19 MB

     Estimated static dynamical RAM per process >     415.10 MB

     Estimated max dynamical RAM per process >       2.17 GB

     Initial potential from superposition of free atoms

     starting charge    7.99888, renormalised to    8.00000

     negative rho (up, down):  6.554E-05 0.000E+00
     Starting wfcs are    8 randomized atomic wfcs
     Checking if some PAW data can be deallocated... 

     total cpu time spent up to now is        6.0 secs

     Self-consistent Calculation

     iteration #  1     ecut=   100.00 Ry     beta= 0.30
     CG style diagonalization
     ethr =  1.00E-02,  avg # of iterations =  4.2

     negative rho (up, down):  2.213E-08 0.000E+00

     total cpu time spent up to now is       29.0 secs

     total energy              =     -93.35641769 Ry
     estimated scf accuracy    <       0.08414952 Ry

     iteration #  2     ecut=   100.00 Ry     beta= 0.30
     CG style diagonalization
     ethr =  1.05E-03,  avg # of iterations =  3.0

     total cpu time spent up to now is       42.3 secs

     total energy              =     -93.33621217 Ry
     estimated scf accuracy    <       0.05747883 Ry

     iteration #  3     ecut=   100.00 Ry     beta= 0.30
     CG style diagonalization
     ethr =  7.18E-04,  avg # of iterations =  3.4

     total cpu time spent up to now is       56.1 secs

     total energy              =     -93.34304676 Ry
     estimated scf accuracy    <       0.00461221 Ry

     iteration #  4     ecut=   100.00 Ry     beta= 0.30
     CG style diagonalization
     ethr =  5.77E-05,  avg # of iterations =  4.7

     total cpu time spent up to now is       73.5 secs

     total energy              =     -93.34303220 Ry
     estimated scf accuracy    <       0.00271588 Ry

     iteration #  5     ecut=   100.00 Ry     beta= 0.30
     CG style diagonalization
     ethr =  3.39E-05,  avg # of iterations =  3.1

     total cpu time spent up to now is       86.2 secs

     total energy              =     -93.34252214 Ry
     estimated scf accuracy    <       0.00162509 Ry

     iteration #  6     ecut=   100.00 Ry     beta= 0.30
     CG style diagonalization
     c_bands:  1 eigenvalues not converged
     ethr =  2.03E-05,  avg # of iterations =  3.6

     negative rho (up, down):  3.805E-04 0.000E+00

     total cpu time spent up to now is      102.6 secs

     total energy              =     -93.34224636 Ry
     estimated scf accuracy    <       0.00094093 Ry

     iteration #  7     ecut=   100.00 Ry     beta= 0.30
     CG style diagonalization
     c_bands:  1 eigenvalues not converged
     c_bands:  1 eigenvalues not converged
     c_bands:  1 eigenvalues not converged
     c_bands:  1 eigenvalues not converged
     ethr =  1.18E-05,  avg # of iterations =  4.4

     negative rho (up, down):  3.146E-03 0.000E+00

     total cpu time spent up to now is      120.8 secs

     total energy              =     -93.34244850 Ry
     estimated scf accuracy    <       0.00036043 Ry

     iteration #  8     ecut=   100.00 Ry     beta= 0.30
     CG style diagonalization
     c_bands:  1 eigenvalues not converged
     c_bands:  1 eigenvalues not converged
     c_bands:  1 eigenvalues not converged
     c_bands:  1 eigenvalues not converged
     c_bands:  1 eigenvalues not converged
     c_bands:  1 eigenvalues not converged
     ethr =  4.51E-06,  avg # of iterations =  4.5

     negative rho (up, down):  4.933E-03 0.000E+00

     total cpu time spent up to now is      140.0 secs

     total energy              =     -93.34255501 Ry
     estimated scf accuracy    <       0.00021008 Ry

     iteration #  9     ecut=   100.00 Ry     beta= 0.30
     CG style diagonalization
     c_bands:  1 eigenvalues not converged
     ethr =  2.63E-06,  avg # of iterations =  4.6

     negative rho (up, down):  3.024E-03 0.000E+00

     total cpu time spent up to now is      160.2 secs

     total energy              =     -93.34238128 Ry
     estimated scf accuracy    <       0.00020477 Ry

     iteration # 10     ecut=   100.00 Ry     beta= 0.30
     CG style diagonalization
     c_bands:  1 eigenvalues not converged
     ethr =  2.56E-06,  avg # of iterations =  3.8

     negative rho (up, down):  1.300E-03 0.000E+00

     total cpu time spent up to now is      179.8 secs

     total energy              =     -93.34237379 Ry
     estimated scf accuracy    <       0.00009391 Ry

     iteration # 11     ecut=   100.00 Ry     beta= 0.30
     CG style diagonalization
     c_bands:  1 eigenvalues not converged
     ethr =  1.17E-06,  avg # of iterations =  3.9

     negative rho (up, down):  9.550E-04 0.000E+00

     total cpu time spent up to now is      196.0 secs

     total energy              =     -93.34240006 Ry
     estimated scf accuracy    <       0.00000656 Ry

     iteration # 12     ecut=   100.00 Ry     beta= 0.30
     CG style diagonalization
     c_bands:  1 eigenvalues not converged
     ethr =  8.21E-08,  avg # of iterations =  4.0

     negative rho (up, down):  9.699E-05 0.000E+00

     total cpu time spent up to now is      220.9 secs

     total energy              =     -93.34237561 Ry
     estimated scf accuracy    <       0.00001593 Ry

     iteration # 13     ecut=   100.00 Ry     beta= 0.30
     CG style diagonalization
     c_bands:  1 eigenvalues not converged
     c_bands:  1 eigenvalues not converged
     ethr =  8.21E-08,  avg # of iterations =  4.5

     negative rho (up, down):  4.366E-05 0.000E+00

     total cpu time spent up to now is      246.5 secs

     total energy              =     -93.34237892 Ry
     estimated scf accuracy    <       0.00000025 Ry

     iteration # 14     ecut=   100.00 Ry     beta= 0.30
     CG style diagonalization
     c_bands:  1 eigenvalues not converged
     ethr =  3.17E-09,  avg # of iterations =  4.1

     negative rho (up, down):  3.531E-06 0.000E+00

     total cpu time spent up to now is      277.0 secs

     total energy              =     -93.34237908 Ry
     estimated scf accuracy    <       0.00000004 Ry

     iteration # 15     ecut=   100.00 Ry     beta= 0.30
     CG style diagonalization
     ethr =  4.80E-10,  avg # of iterations =  3.3

     negative rho (up, down):  6.375E-06 0.000E+00

     total cpu time spent up to now is      314.8 secs

     total energy              =     -93.34237912 Ry
     estimated scf accuracy    <       0.00000001 Ry

     iteration # 16     ecut=   100.00 Ry     beta= 0.30
     CG style diagonalization
     c_bands:  1 eigenvalues not converged
     ethr =  1.86E-10,  avg # of iterations =  3.5

     negative rho (up, down):  6.034E-06 0.000E+00

     total cpu time spent up to now is      327.6 secs

     End of self-consistent calculation

          k = 0.0000 0.0000 0.0000 ( 26093 PWs)   bands (ev):

   -14.4562  -6.0092  -4.2967  -4.2955  -0.0708   0.1197   0.1204   0.3709

     occupation numbers 
     1.0000   1.0000   1.0000   1.0000  -0.0000  -0.0000  -0.0000  -0.0000

          k = 0.0000 0.1925 0.0000 ( 26049 PWs)   bands (ev):

   -14.1096  -6.0935  -5.6717  -4.8032  -0.5591   0.7534   1.3110   1.9013

     occupation numbers 
     1.0000   1.0000   1.0000   1.0000  -0.0000  -0.0000  -0.0000  -0.0000

          k = 0.0000 0.3849 0.0000 ( 25990 PWs)   bands (ev):

   -13.1100  -8.7110  -5.4968  -4.6988  -1.4336  -0.2994   1.8828   4.0459

     occupation numbers 
     1.0000   1.0000   1.0000   1.0000  -0.0002  -0.0000  -0.0000  -0.0000

          k = 0.0000-0.5774 0.0000 ( 26028 PWs)   bands (ev):

   -12.0309 -10.3772  -5.7644  -3.6644  -1.9311  -1.7691   3.4008   4.0136

     occupation numbers 
     1.0000   1.0000   1.0000   1.0006  -0.0229  -0.0080  -0.0000  -0.0000

          k = 0.1667-0.0962 0.0000 ( 26049 PWs)   bands (ev):

   -14.1096  -6.0939  -5.6718  -4.8027  -0.5586   0.7533   1.3109   1.8914

     occupation numbers 
     1.0000   1.0000   1.0000   1.0000  -0.0000  -0.0000  -0.0000  -0.0000

          k = 0.1667 0.2887 0.0000 ( 26001 PWs)   bands (ev):

   -13.4318  -7.8057  -5.9550  -5.0116   0.4296   0.5401   1.0574   1.5118

     occupation numbers 
     1.0000   1.0000   1.0000   1.0000  -0.0000  -0.0000  -0.0000  -0.0000

          k = 0.1667-0.6736 0.0000 ( 26011 PWs)   bands (ev):

   -12.1968  -9.8299  -6.8273  -3.8139  -1.4555   0.1360   2.5052   2.9508

     occupation numbers 
     1.0000   1.0000   1.0000   1.0001  -0.0003  -0.0000  -0.0000  -0.0000

          k = 0.3333-0.1925 0.0000 ( 25990 PWs)   bands (ev):

   -13.1101  -8.7113  -5.4964  -4.6988  -1.4331  -0.2997   1.8829   3.2588

     occupation numbers 
     1.0000   1.0000   1.0000   1.0000  -0.0002  -0.0000  -0.0000  -0.0000

          k = 0.3333 0.0000 0.0000 ( 26003 PWs)   bands (ev):

   -13.4318  -7.8060  -5.9548  -5.0116   0.4302   0.5399   1.0577   1.5117

     occupation numbers 
     1.0000   1.0000   1.0000   1.0000  -0.0000  -0.0000  -0.0000  -0.0000

          k = 0.3333-0.7698 0.0000 ( 26011 PWs)   bands (ev):

   -12.1967  -9.8304  -6.8268  -3.8138  -1.4559   0.1369   2.5055   2.9507

     occupation numbers 
     1.0000   1.0000   1.0000   1.0001  -0.0003  -0.0000  -0.0000  -0.0000

          k = 0.3333-0.5774 0.0000 ( 26037 PWs)   bands (ev):

   -10.9422 -10.9417  -7.7817  -2.5976  -2.5972   1.4440   2.7131   3.5348

     occupation numbers 
     1.0000   1.0000   1.0000   0.5242   0.5233  -0.0000  -0.0000  -0.0000

          k =-0.5000 0.2887 0.0000 ( 26028 PWs)   bands (ev):

   -12.0308 -10.3775  -5.7640  -3.6644  -1.9315  -1.7685   3.4007   4.0136

     occupation numbers 
     1.0000   1.0000   1.0000   1.0006  -0.0229  -0.0079  -0.0000  -0.0000

          k =-0.5000 0.4811 0.0000 ( 26011 PWs)   bands (ev):

   -12.1969  -9.8301  -6.8269  -3.8139  -1.4557   0.1367   2.5054   2.9506

     occupation numbers 
     1.0000   1.0000   1.0000   1.0001  -0.0003  -0.0000  -0.0000  -0.0000

          k =-0.1667-0.0962 0.0000 ( 26049 PWs)   bands (ev):

   -14.1096  -6.0942  -5.6717  -4.8023  -0.5583   0.7532   1.3105   1.8900

     occupation numbers 
     1.0000   1.0000   1.0000   1.0000  -0.0000  -0.0000  -0.0000  -0.0000

          k =-0.1667 0.2887 0.0000 ( 26001 PWs)   bands (ev):

   -13.4318  -7.8054  -5.9554  -5.0116   0.4291   0.5403   1.0578   1.5118

     occupation numbers 
     1.0000   1.0000   1.0000   1.0000  -0.0000  -0.0000  -0.0000  -0.0000

          k =-0.1667-0.6736 0.0000 ( 26011 PWs)   bands (ev):

   -12.1969  -9.8297  -6.8274  -3.8140  -1.4553   0.1360   2.5052   2.9506

     occupation numbers 
     1.0000   1.0000   1.0000   1.0001  -0.0003  -0.0000  -0.0000  -0.0000

          k =-0.3333-0.1925 0.0000 ( 25990 PWs)   bands (ev):

   -13.1100  -8.7116  -5.4961  -4.6987  -1.4329  -0.3000   1.8829   3.2587

     occupation numbers 
     1.0000   1.0000   1.0000   1.0000  -0.0002  -0.0000  -0.0000  -0.0000

          k =-0.3333-0.7698 0.0000 ( 26011 PWs)   bands (ev):

   -12.1969  -9.8300  -6.8271  -3.8140  -1.4555   0.1366   2.5053   2.9507

     occupation numbers 
     1.0000   1.0000   1.0000   1.0001  -0.0003  -0.0000  -0.0000  -0.0000

          k = 0.5000 0.2887 0.0000 ( 26028 PWs)   bands (ev):

   -12.0305 -10.3781  -5.7637  -3.6641  -1.9320  -1.7683   3.4008   4.0133

     occupation numbers 
     1.0000   1.0000   1.0000   1.0006  -0.0230  -0.0079  -0.0000  -0.0000

          k = 0.5000 0.4811 0.0000 ( 26011 PWs)   bands (ev):

   -12.1968  -9.8304  -6.8267  -3.8138  -1.4559   0.1370   2.5056   2.9504

     occupation numbers 
     1.0000   1.0000   1.0000   1.0001  -0.0003  -0.0000  -0.0000  -0.0000

     the Fermi energy is    -2.5859 ev

!    total energy              =     -93.34237914 Ry

     total all-electron energy =     -1160.034109 Ry
     estimated scf accuracy    <          1.7E-09 Ry
     smearing contrib. (-TS)   =      -0.00058456 Ry
     internal energy E=F+TS    =     -93.34179458 Ry

     The total energy is F=E-TS. E is the sum of the following terms:
     one-electron contribution =     -79.46195163 Ry
     hartree contribution      =      41.00793017 Ry
     xc contribution           =     -12.29075043 Ry
     ewald contribution        =      28.61388783 Ry
     one-center paw contrib.   =     -71.21091051 Ry
      -> PAW hartree energy AE =       6.57449236 Ry
      -> PAW hartree energy PS =      -6.54974682 Ry
      -> PAW xc energy AE      =     -82.00757226 Ry
      -> PAW xc energy PS      =      10.77191621 Ry
      -> total E_H with PAW    =      41.03267570 Ry
      -> total E_XC with PAW   =     -83.52640648 Ry

     convergence has been achieved in  16 iterations

     negative rho (up, down):  6.034E-06 0.000E+00

     Forces acting on atoms (cartesian axes, Ry/au):

     atom    1 type  1   force =    -0.00006650   -0.00007590    0.00000000
     atom    2 type  1   force =     0.00006650    0.00007590    0.00000000
     The non-local contrib.  to forces
     atom    1 type  1   force =    -0.00005490   -0.00004528    0.00000000
     atom    2 type  1   force =     0.00005904    0.00004421    0.00000000
     The ionic contribution  to forces
     atom    1 type  1   force =    -0.00014756   -0.00010468   -0.00000000
     atom    2 type  1   force =     0.00014756    0.00010468   -0.00000000
     The local contribution  to forces
     atom    1 type  1   force =     0.00012969    0.00006909    0.00000000
     atom    2 type  1   force =    -0.00013157   -0.00006825    0.00000000
     The core correction contribution to forces
     atom    1 type  1   force =     0.00000643    0.00000531    0.00000000
     atom    2 type  1   force =    -0.00000686   -0.00000517    0.00000000
     The Hubbard contrib.    to forces
     atom    1 type  1   force =     0.00000000    0.00000000    0.00000000
     atom    2 type  1   force =     0.00000000    0.00000000    0.00000000
     The SCF correction term to forces
     atom    1 type  1   force =     0.00000098   -0.00000039    0.00000000
     atom    2 type  1   force =    -0.00000052    0.00000037   -0.00000000

     Total force =     0.000143     Total SCF correction =     0.000001


     Computing stress (Cartesian axis) and pressure


     negative rho (up, down):  6.034E-06 0.000E+00
          total   stress  (Ry/bohr**3)                   (kbar)     P=       20.93
   0.00021348   0.00000007   0.00000000           31.40        0.01        0.00
   0.00000007   0.00021339   0.00000000            0.01       31.39        0.00
   0.00000000   0.00000000  -0.00000003            0.00        0.00       -0.00

     kinetic stress (kbar)    364.56     -0.01      0.00
                               -0.01    364.58      0.00
                                0.00      0.00    445.78

     local   stress (kbar)  -8307.68     -0.05     -0.00
                               -0.05  -8307.56     -0.00
                               -0.00     -0.00   8508.19

     nonloc. stress (kbar)    310.08      0.01      0.00
                                0.01    310.06      0.00
                                0.00      0.00    255.35

     hartree stress (kbar)   3867.93      0.01     -0.00
                                0.01   3867.92      0.00
                               -0.00      0.00  -3821.01

     exc-cor stress (kbar)    519.84      0.00      0.00
                                0.00    519.84      0.00
                                0.00      0.00    513.34

     corecor stress (kbar)   -695.65     -0.00     -0.00
                               -0.00   -695.65      0.00
                               -0.00      0.00   -688.79

     ewald   stress (kbar)   3972.32      0.05     -0.00
                                0.05   3972.19     -0.00
                               -0.00     -0.00  -5212.86

     hubbard stress (kbar)      0.00      0.00      0.00
                                0.00      0.00      0.00
                                0.00      0.00      0.00

     DFT-D   stress (kbar)      0.00      0.00      0.00
                                0.00      0.00      0.00
                                0.00      0.00      0.00

     XDM     stress (kbar)      0.00      0.00      0.00
                                0.00      0.00      0.00
                                0.00      0.00      0.00

     dft-nl  stress (kbar)      0.00      0.00      0.00
                                0.00      0.00      0.00
                                0.00      0.00      0.00

     TS-vdW  stress (kbar)      0.00      0.00      0.00
                                0.00      0.00      0.00
                                0.00      0.00      0.00



     Writing output data file ./outputs/si.slab.save/

     init_run     :      5.56s CPU      5.95s WALL (       1 calls)
     electrons    :    295.46s CPU    321.65s WALL (       1 calls)
     forces       :      4.05s CPU      4.33s WALL (       1 calls)
     stress       :     11.62s CPU     12.25s WALL (       1 calls)

     Called by init_run:
     wfcinit      :      2.22s CPU      2.32s WALL (       1 calls)
     wfcinit:atom :      0.04s CPU      0.05s WALL (      20 calls)
     wfcinit:wfcr :      1.96s CPU      2.03s WALL (      20 calls)
     potinit      :      0.98s CPU      1.02s WALL (       1 calls)
     hinit0       :      1.12s CPU      1.13s WALL (       1 calls)

     Called by electrons:
     c_bands      :    153.72s CPU    154.22s WALL (      16 calls)
     sum_band     :     36.16s CPU     55.45s WALL (      16 calls)
     v_of_rho     :      6.89s CPU      7.32s WALL (      17 calls)
     v_h          :      0.49s CPU      0.50s WALL (      17 calls)
     v_xc         :      7.37s CPU      7.85s WALL (      19 calls)
     newd         :     16.03s CPU     21.98s WALL (      17 calls)
     PAW_pot      :      2.98s CPU      2.98s WALL (      17 calls)
     mix_rho      :     80.68s CPU     80.93s WALL (      16 calls)

     Called by c_bands:
     init_us_2    :      2.82s CPU      2.85s WALL (     700 calls)
     ccgdiagg     :    122.57s CPU    122.97s WALL (     320 calls)
     wfcrot       :     31.34s CPU     31.49s WALL (     320 calls)

     Called by sum_band:
     sum_band:wei :      0.00s CPU      0.00s WALL (      16 calls)
     sum_band:loo :     14.86s CPU     14.90s WALL (      16 calls)
     sum_band:buf :      0.13s CPU      0.13s WALL (     320 calls)
     sum_band:ini :      1.28s CPU      1.28s WALL (     320 calls)
     sum_band:cal :      3.59s CPU      3.59s WALL (     320 calls)
     sum_band:bec :      0.00s CPU      0.00s WALL (     320 calls)
     addusdens    :     20.38s CPU     39.61s WALL (      16 calls)
     addusd:skk   :      0.06s CPU      0.07s WALL (      16 calls)
     addusd:dgemm :      6.53s CPU     24.49s WALL (      16 calls)
     addusd:qvan2 :     12.44s CPU     12.46s WALL (      16 calls)

     Called by *cgdiagg:
     h_psi        :    109.42s CPU    109.83s WALL (    7918 calls)
     s_psi        :     24.82s CPU     24.89s WALL (   15516 calls)

     Called by h_psi:
     h_psi:calbec :     14.91s CPU     14.96s WALL (    7918 calls)
     vloc_psi     :     79.23s CPU     79.51s WALL (    7918 calls)
     add_vuspsi   :     14.81s CPU     14.88s WALL (    7918 calls)
     hs_1psi      :     94.63s CPU     94.92s WALL (    7598 calls)
     s_1psi       :     21.30s CPU     21.38s WALL (    7598 calls)

     General routines
     calbec       :     29.92s CPU     30.08s WALL (   15936 calls)
     fft          :      5.87s CPU      5.90s WALL (     244 calls)
     ffts         :     38.00s CPU     38.09s WALL (    7476 calls)
     fftw         :     74.78s CPU     75.07s WALL (   22876 calls)
     interpolate  :      0.51s CPU      0.51s WALL (      17 calls)

     Parallel routines

     PAW routines
     PAW_pot      :      2.98s CPU      2.98s WALL (      17 calls)
     PAW_symme    :      0.00s CPU      0.00s WALL (      33 calls)

     PWSCF        :   5m16.78s CPU   5m44.34s WALL


   This run was terminated on:  15: 2:58  22Oct2024            

=------------------------------------------------------------------------------=
   JOB DONE.
=------------------------------------------------------------------------------=
