
     Program PWSCF v.6.7MaX starts on 22Oct2024 at 14:52: 2 

     This program is part of the open-source Quantum ESPRESSO suite
     for quantum simulation of materials; please cite
         "P. Giannozzi et al., J. Phys.:Condens. Matter 21 395502 (2009);
         "P. Giannozzi et al., J. Phys.:Condens. Matter 29 465901 (2017);
          URL http://www.quantum-espresso.org", 
     in publications or presentations arising from this work. More details at
     http://www.quantum-espresso.org/quote

     Parallel version (MPI), running on     1 processors

     MPI processes distributed on     1 nodes
     Waiting for input...
     Reading input from standard input

     Current dimensions of program PWSCF are:
     Max number of different atomic species (ntypx) = 10
     Max number of k-points (npk) =  40000
     Max angular momentum in pseudopotentials (lmaxx) =  3
     file Si.pbe-n-kjpaw_psl.1.0.0.UPF: wavefunction(s)  3S 3P renormalized

     Subspace diagonalization in iterative solution of the eigenvalue problem:
     a serial algorithm will be used

     Message from routine setup:
     using ibrav=0 with symmetry is DISCOURAGED, use correct ibrav instead

     G-vector sticks info
     --------------------
     sticks:   dense  smooth     PW     G-vecs:    dense   smooth      PW
     Sum        2587    1285    379               532023   188211   29403


     Title: 
     si.slab                                                                    


     bravais-lattice index     =            0
     lattice parameter (alat)  =       6.8503  a.u.
     unit-cell volume          =    1391.9102 (a.u.)^3
     number of atoms/cell      =            2
     number of atomic types    =            1
     number of electrons       =         8.00
     number of Kohn-Sham states=            8
     kinetic-energy cutoff     =     100.0000  Ry
     charge density cutoff     =     800.0000  Ry
     scf convergence threshold =      1.0E-08
     mixing beta               =       0.3000
     number of iterations used =            8  local-TF  mixing
     Exchange-correlation= SLA  PW   PBX  PBC
                           (   1   4   3   4   0   0   0)

     celldm(1)=   6.850271  celldm(2)=   0.000000  celldm(3)=   0.000000
     celldm(4)=   0.000000  celldm(5)=   0.000000  celldm(6)=   0.000000

     crystal axes: (cart. coord. in units of alat)
               a(1) = (   1.000000   0.000000   0.000000 )  
               a(2) = (   0.500000   0.866000   0.000000 )  
               a(3) = (   0.000000   0.000000   5.000000 )  

     reciprocal axes: (cart. coord. in units 2 pi/alat)
               b(1) = (  1.000000 -0.577367  0.000000 )  
               b(2) = (  0.000000  1.154734  0.000000 )  
               b(3) = (  0.000000  0.000000  0.200000 )  


     PseudoPot. # 1 for Si read from file:
     /home/ayan/pseudo_directory/Si.pbe-n-kjpaw_psl.1.0.0.UPF
     MD5 check sum: c39c59da582df4a0d9f10159256ea34e
     Pseudo is Projector augmented-wave + core cor, Zval =  4.0
     Generated using &quot;atomic&quot; code by A. Dal Corso  v.6.3
     Shape of augmentation charge: PSQ
     Using radial grid of 1141 points,  6 beta functions with: 
                l(1) =   0
                l(2) =   0
                l(3) =   1
                l(4) =   1
                l(5) =   2
                l(6) =   2
     Q(r) pseudized with 0 coefficients 


     atomic species   valence    mass     pseudopotential
        Si             4.00    28.08500     Si( 1.00)

      2 Sym. Ops. (no inversion) found


                                    s                        frac. trans.

      isym =  1     identity                                     

 cryst.   s( 1) = (     1          0          0      )
                  (     0          1          0      )
                  (     0          0          1      )

 cart.    s( 1) = (  1.0000000  0.0000000  0.0000000 )
                  (  0.0000000  1.0000000  0.0000000 )
                  (  0.0000000  0.0000000  1.0000000 )


      isym =  2     inv. 180 deg rotation - cart. axis [0,0,1]   

 cryst.   s( 2) = (     1          0          0      )
                  (     0          1          0      )
                  (     0          0         -1      )

 cart.    s( 2) = (  1.0000000  0.0000000  0.0000000 )
                  (  0.0000000  1.0000000  0.0000000 )
                  (  0.0000000  0.0000000 -1.0000000 )


   Cartesian axes

     site n.     atom                  positions (alat units)
         1           Si  tau(   1) = (   0.0000000   0.0000000   0.0000000  )
         2           Si  tau(   2) = (   0.4999800   0.2886378   0.0000000  )

   Crystallographic axes

     site n.     atom                  positions (cryst. coord.)
         1           Si  tau(   1) = (  0.0000000  0.0000000  0.0000000  )
         2           Si  tau(   2) = (  0.3333300  0.3333000  0.0000000  )

     number of k points=    20  Methfessel-Paxton smearing, width (Ry)=  0.0300
                       cart. coord. in units 2pi/alat
        k(    1) = (   0.0000000   0.0000000   0.0000000), wk =   0.0555556
        k(    2) = (   0.0000000   0.1924557   0.0000000), wk =   0.1111111
        k(    3) = (   0.0000000   0.3849115   0.0000000), wk =   0.1111111
        k(    4) = (   0.0000000  -0.5773672   0.0000000), wk =   0.0555556
        k(    5) = (   0.1666667  -0.0962279   0.0000000), wk =   0.1111111
        k(    6) = (   0.1666667   0.2886836   0.0000000), wk =   0.1111111
        k(    7) = (   0.1666667  -0.6735951   0.0000000), wk =   0.1111111
        k(    8) = (   0.3333333  -0.1924557   0.0000000), wk =   0.1111111
        k(    9) = (   0.3333333   0.0000000   0.0000000), wk =   0.1111111
        k(   10) = (   0.3333333  -0.7698229   0.0000000), wk =   0.1111111
        k(   11) = (   0.3333333  -0.5773672   0.0000000), wk =   0.1111111
        k(   12) = (  -0.5000000   0.2886836   0.0000000), wk =   0.0555556
        k(   13) = (  -0.5000000   0.4811393   0.0000000), wk =   0.1111111
        k(   14) = (  -0.1666667  -0.0962279   0.0000000), wk =   0.1111111
        k(   15) = (  -0.1666667   0.2886836   0.0000000), wk =   0.1111111
        k(   16) = (  -0.1666667  -0.6735951   0.0000000), wk =   0.1111111
        k(   17) = (  -0.3333333  -0.1924557   0.0000000), wk =   0.1111111
        k(   18) = (  -0.3333333  -0.7698229   0.0000000), wk =   0.1111111
        k(   19) = (   0.5000000   0.2886836   0.0000000), wk =   0.0555556
        k(   20) = (   0.5000000   0.4811393   0.0000000), wk =   0.1111111

                       cryst. coord.
        k(    1) = (   0.0000000   0.0000000   0.0000000), wk =   0.0555556
        k(    2) = (   0.0000000   0.1666667   0.0000000), wk =   0.1111111
        k(    3) = (   0.0000000   0.3333333   0.0000000), wk =   0.1111111
        k(    4) = (   0.0000000  -0.5000000   0.0000000), wk =   0.0555556
        k(    5) = (   0.1666667   0.0000000   0.0000000), wk =   0.1111111
        k(    6) = (   0.1666667   0.3333333   0.0000000), wk =   0.1111111
        k(    7) = (   0.1666667  -0.5000000   0.0000000), wk =   0.1111111
        k(    8) = (   0.3333333   0.0000000   0.0000000), wk =   0.1111111
        k(    9) = (   0.3333333   0.1666667   0.0000000), wk =   0.1111111
        k(   10) = (   0.3333333  -0.5000000   0.0000000), wk =   0.1111111
        k(   11) = (   0.3333333  -0.3333333   0.0000000), wk =   0.1111111
        k(   12) = (  -0.5000000   0.0000000   0.0000000), wk =   0.0555556
        k(   13) = (  -0.5000000   0.1666667   0.0000000), wk =   0.1111111
        k(   14) = (  -0.1666667  -0.1666667   0.0000000), wk =   0.1111111
        k(   15) = (  -0.1666667   0.1666667   0.0000000), wk =   0.1111111
        k(   16) = (  -0.1666667  -0.6666667   0.0000000), wk =   0.1111111
        k(   17) = (  -0.3333333  -0.3333333   0.0000000), wk =   0.1111111
        k(   18) = (  -0.3333333  -0.8333333   0.0000000), wk =   0.1111111
        k(   19) = (   0.5000000   0.5000000   0.0000000), wk =   0.0555556
        k(   20) = (   0.5000000   0.6666667   0.0000000), wk =   0.1111111

     Dense  grid:   532023 G-vectors     FFT dimensions: (  64,  64, 320)

     Smooth grid:   188211 G-vectors     FFT dimensions: (  45,  45, 225)

     Dynamical RAM for                 wfc:       2.87 MB

     Dynamical RAM for     wfc (w. buffer):      60.25 MB

     Dynamical RAM for           str. fact:       8.12 MB

     Dynamical RAM for           local pot:       0.00 MB

     Dynamical RAM for          nlocal pot:      12.91 MB

     Dynamical RAM for                qrad:       2.27 MB

     Dynamical RAM for          rho,v,vnew:      54.35 MB

     Dynamical RAM for               rhoin:      18.12 MB

     Dynamical RAM for            rho*nmix:     129.89 MB

     Dynamical RAM for           G-vectors:      31.88 MB

     Dynamical RAM for          h,s,v(r/c):       0.00 MB

     Dynamical RAM for          <psi|beta>:       0.00 MB

     Dynamical RAM for      wfcinit/wfcrot:       5.74 MB

     Dynamical RAM for           addusdens:    1526.19 MB

     Dynamical RAM for          addusforce:    1546.49 MB

     Dynamical RAM for         addusstress:    1631.72 MB

     Estimated static dynamical RAM per process >     384.03 MB

     Estimated max dynamical RAM per process >       1.97 GB

     Initial potential from superposition of free atoms

     starting charge    7.99888, renormalised to    8.00000

     negative rho (up, down):  5.907E-05 0.000E+00
     Starting wfcs are    8 randomized atomic wfcs
     Checking if some PAW data can be deallocated... 

     total cpu time spent up to now is        5.6 secs

     Self-consistent Calculation

     iteration #  1     ecut=   100.00 Ry     beta= 0.30
     CG style diagonalization
     ethr =  1.00E-02,  avg # of iterations =  4.3

     total cpu time spent up to now is       30.3 secs

     total energy              =     -93.32909623 Ry
     estimated scf accuracy    <       0.10722338 Ry

     iteration #  2     ecut=   100.00 Ry     beta= 0.30
     CG style diagonalization
     ethr =  1.34E-03,  avg # of iterations =  3.1

     total cpu time spent up to now is       42.3 secs

     total energy              =     -93.30044348 Ry
     estimated scf accuracy    <       0.07357600 Ry

     iteration #  3     ecut=   100.00 Ry     beta= 0.30
     CG style diagonalization
     ethr =  9.20E-04,  avg # of iterations =  3.4

     total cpu time spent up to now is       57.2 secs

     total energy              =     -93.30997260 Ry
     estimated scf accuracy    <       0.00632081 Ry

     iteration #  4     ecut=   100.00 Ry     beta= 0.30
     CG style diagonalization
     ethr =  7.90E-05,  avg # of iterations =  4.4

     total cpu time spent up to now is       73.4 secs

     total energy              =     -93.30963137 Ry
     estimated scf accuracy    <       0.00395566 Ry

     iteration #  5     ecut=   100.00 Ry     beta= 0.30
     CG style diagonalization
     ethr =  4.94E-05,  avg # of iterations =  3.3

     total cpu time spent up to now is       86.7 secs

     total energy              =     -93.30907805 Ry
     estimated scf accuracy    <       0.00222958 Ry

     iteration #  6     ecut=   100.00 Ry     beta= 0.30
     CG style diagonalization
     ethr =  2.79E-05,  avg # of iterations =  3.4

     negative rho (up, down):  1.026E-03 0.000E+00

     total cpu time spent up to now is      101.5 secs

     total energy              =     -93.30868900 Ry
     estimated scf accuracy    <       0.00134992 Ry

     iteration #  7     ecut=   100.00 Ry     beta= 0.30
     CG style diagonalization
     c_bands:  1 eigenvalues not converged
     c_bands:  1 eigenvalues not converged
     ethr =  1.69E-05,  avg # of iterations =  4.0

     negative rho (up, down):  4.068E-03 0.000E+00

     total cpu time spent up to now is      120.2 secs

     total energy              =     -93.30895862 Ry
     estimated scf accuracy    <       0.00046493 Ry

     iteration #  8     ecut=   100.00 Ry     beta= 0.30
     CG style diagonalization
     c_bands:  1 eigenvalues not converged
     c_bands:  1 eigenvalues not converged
     c_bands:  1 eigenvalues not converged
     c_bands:  1 eigenvalues not converged
     c_bands:  1 eigenvalues not converged
     ethr =  5.81E-06,  avg # of iterations =  4.3

     negative rho (up, down):  5.536E-03 0.000E+00

     total cpu time spent up to now is      137.9 secs

     total energy              =     -93.30915816 Ry
     estimated scf accuracy    <       0.00029034 Ry

     iteration #  9     ecut=   100.00 Ry     beta= 0.30
     CG style diagonalization
     c_bands:  1 eigenvalues not converged
     ethr =  3.63E-06,  avg # of iterations =  4.6

     negative rho (up, down):  3.440E-03 0.000E+00

     total cpu time spent up to now is      157.6 secs

     total energy              =     -93.30869592 Ry
     estimated scf accuracy    <       0.00030518 Ry

     iteration # 10     ecut=   100.00 Ry     beta= 0.30
     CG style diagonalization
     ethr =  3.63E-06,  avg # of iterations =  3.9

     negative rho (up, down):  1.365E-03 0.000E+00

     total cpu time spent up to now is      175.6 secs

     total energy              =     -93.30871301 Ry
     estimated scf accuracy    <       0.00011536 Ry

     iteration # 11     ecut=   100.00 Ry     beta= 0.30
     CG style diagonalization
     c_bands:  1 eigenvalues not converged
     ethr =  1.44E-06,  avg # of iterations =  4.0

     negative rho (up, down):  1.104E-03 0.000E+00

     total cpu time spent up to now is      193.5 secs

     total energy              =     -93.30873395 Ry
     estimated scf accuracy    <       0.00000592 Ry

     iteration # 12     ecut=   100.00 Ry     beta= 0.30
     CG style diagonalization
     ethr =  7.41E-08,  avg # of iterations =  3.9

     negative rho (up, down):  1.085E-04 0.000E+00

     total cpu time spent up to now is      213.3 secs

     total energy              =     -93.30871835 Ry
     estimated scf accuracy    <       0.00001561 Ry

     iteration # 13     ecut=   100.00 Ry     beta= 0.30
     CG style diagonalization
     ethr =  7.41E-08,  avg # of iterations =  4.2

     negative rho (up, down):  1.153E-04 0.000E+00

     total cpu time spent up to now is      234.3 secs

     total energy              =     -93.30872051 Ry
     estimated scf accuracy    <       0.00000060 Ry

     iteration # 14     ecut=   100.00 Ry     beta= 0.30
     CG style diagonalization
     ethr =  7.52E-09,  avg # of iterations =  3.2

     negative rho (up, down):  8.379E-06 0.000E+00

     total cpu time spent up to now is      255.0 secs

     total energy              =     -93.30872019 Ry
     estimated scf accuracy    <       0.00000026 Ry

     iteration # 15     ecut=   100.00 Ry     beta= 0.30
     CG style diagonalization
     ethr =  3.25E-09,  avg # of iterations =  3.8

     negative rho (up, down):  6.049E-06 0.000E+00

     total cpu time spent up to now is      280.3 secs

     total energy              =     -93.30872035 Ry
     estimated scf accuracy    <       0.00000015 Ry

     iteration # 16     ecut=   100.00 Ry     beta= 0.30
     CG style diagonalization
     ethr =  1.93E-09,  avg # of iterations =  3.6

     negative rho (up, down):  5.803E-06 0.000E+00

     total cpu time spent up to now is      294.7 secs

     End of self-consistent calculation

          k = 0.0000 0.0000 0.0000 ( 23449 PWs)   bands (ev):

   -14.6598  -6.0844  -3.9261  -3.9249   0.4616   0.5022   0.5029   1.2767

     occupation numbers 
     1.0000   1.0000   1.0000   1.0000  -0.0000  -0.0000  -0.0000  -0.0000

          k = 0.0000 0.1925 0.0000 ( 23461 PWs)   bands (ev):

   -14.2845  -5.7543  -5.7199  -4.4923  -0.0893   0.8743   1.7947   2.2951

     occupation numbers 
     1.0000   1.0000   1.0000   1.0000  -0.0000  -0.0000  -0.0000  -0.0000

          k = 0.0000 0.3849 0.0000 ( 23549 PWs)   bands (ev):

   -13.1979  -8.5369  -5.2498  -4.6644  -1.0103   0.0558   2.0857   4.7121

     occupation numbers 
     1.0000   1.0000   1.0000   1.0000  -0.0000  -0.0000  -0.0000  -0.0000

          k = 0.0000-0.5774 0.0000 ( 23548 PWs)   bands (ev):

   -11.9904 -10.3672  -5.5390  -3.5180  -1.7477  -1.3646   3.7304   4.3789

     occupation numbers 
     1.0000   1.0000   1.0000   1.0002  -0.0273  -0.0015  -0.0000  -0.0000

          k = 0.1667-0.0962 0.0000 ( 23461 PWs)   bands (ev):

   -14.2845  -5.7547  -5.7199  -4.4918  -0.0889   0.8745   1.7946   2.2953

     occupation numbers 
     1.0000   1.0000   1.0000   1.0000  -0.0000  -0.0000  -0.0000  -0.0000

          k = 0.1667 0.2887 0.0000 ( 23497 PWs)   bands (ev):

   -13.5492  -7.5211  -5.7958  -5.0051   0.8346   1.0077   1.6907   1.8450

     occupation numbers 
     1.0000   1.0000   1.0000   1.0000  -0.0000  -0.0000  -0.0000  -0.0000

          k = 0.1667-0.6736 0.0000 ( 23511 PWs)   bands (ev):

   -12.1978  -9.7015  -6.7463  -3.6979  -1.1759   0.6516   2.7649   3.2398

     occupation numbers 
     1.0000   1.0000   1.0000   1.0000  -0.0002  -0.0000  -0.0000  -0.0000

          k = 0.3333-0.1925 0.0000 ( 23549 PWs)   bands (ev):

   -13.1979  -8.5373  -5.2493  -4.6644  -1.0098   0.0554   2.0853   3.5400

     occupation numbers 
     1.0000   1.0000   1.0000   1.0000  -0.0000  -0.0000  -0.0000  -0.0000

          k = 0.3333 0.0000 0.0000 ( 23497 PWs)   bands (ev):

   -13.5493  -7.5213  -5.7956  -5.0051   0.8352   1.0075   1.6906   1.8452

     occupation numbers 
     1.0000   1.0000   1.0000   1.0000  -0.0000  -0.0000  -0.0000  -0.0000

          k = 0.3333-0.7698 0.0000 ( 23511 PWs)   bands (ev):

   -12.1977  -9.7020  -6.7458  -3.6978  -1.1764   0.6524   2.7653   3.2397

     occupation numbers 
     1.0000   1.0000   1.0000   1.0000  -0.0002  -0.0000  -0.0000  -0.0000

          k = 0.3333-0.5774 0.0000 ( 23517 PWs)   bands (ev):

   -10.8332 -10.8327  -7.8539  -2.3742  -2.3738   1.5746   3.1305   4.2252

     occupation numbers 
     1.0000   1.0000   1.0000   0.5223   0.5214  -0.0000  -0.0000  -0.0000

          k =-0.5000 0.2887 0.0000 ( 23548 PWs)   bands (ev):

   -11.9904 -10.3676  -5.5385  -3.5180  -1.7481  -1.3640   3.7304   4.3786

     occupation numbers 
     1.0000   1.0000   1.0000   1.0002  -0.0273  -0.0015  -0.0000  -0.0000

          k =-0.5000 0.4811 0.0000 ( 23511 PWs)   bands (ev):

   -12.1979  -9.7018  -6.7460  -3.6979  -1.1762   0.6523   2.7653   3.2396

     occupation numbers 
     1.0000   1.0000   1.0000   1.0000  -0.0002  -0.0000  -0.0000  -0.0000

          k =-0.1667-0.0962 0.0000 ( 23461 PWs)   bands (ev):

   -14.2845  -5.7551  -5.7199  -4.4914  -0.0886   0.8743   1.7942   2.2951

     occupation numbers 
     1.0000   1.0000   1.0000   1.0000  -0.0000  -0.0000  -0.0000  -0.0000

          k =-0.1667 0.2887 0.0000 ( 23497 PWs)   bands (ev):

   -13.5493  -7.5207  -5.7962  -5.0051   0.8341   1.0080   1.6907   1.8454

     occupation numbers 
     1.0000   1.0000   1.0000   1.0000  -0.0000  -0.0000  -0.0000  -0.0000

          k =-0.1667-0.6736 0.0000 ( 23511 PWs)   bands (ev):

   -12.1979  -9.7014  -6.7464  -3.6979  -1.1758   0.6515   2.7648   3.2397

     occupation numbers 
     1.0000   1.0000   1.0000   1.0000  -0.0002  -0.0000  -0.0000  -0.0000

          k =-0.3333-0.1925 0.0000 ( 23549 PWs)   bands (ev):

   -13.1979  -8.5376  -5.2490  -4.6644  -1.0096   0.0552   2.0856   3.5397

     occupation numbers 
     1.0000   1.0000   1.0000   1.0000  -0.0000  -0.0000  -0.0000  -0.0000

          k =-0.3333-0.7698 0.0000 ( 23511 PWs)   bands (ev):

   -12.1979  -9.7016  -6.7461  -3.6979  -1.1760   0.6521   2.7650   3.2397

     occupation numbers 
     1.0000   1.0000   1.0000   1.0000  -0.0002  -0.0000  -0.0000  -0.0000

          k = 0.5000 0.2887 0.0000 ( 23548 PWs)   bands (ev):

   -11.9901 -10.3681  -5.5383  -3.5177  -1.7486  -1.3639   3.7304   4.3780

     occupation numbers 
     1.0000   1.0000   1.0000   1.0002  -0.0274  -0.0014  -0.0000  -0.0000

          k = 0.5000 0.4811 0.0000 ( 23511 PWs)   bands (ev):

   -12.1978  -9.7020  -6.7458  -3.6978  -1.1764   0.6526   2.7653   3.2397

     occupation numbers 
     1.0000   1.0000   1.0000   1.0000  -0.0002  -0.0000  -0.0000  -0.0000

     the Fermi energy is    -2.3635 ev

!    total energy              =     -93.30872041 Ry

     total all-electron energy =     -1160.000450 Ry
     estimated scf accuracy    <          3.4E-09 Ry
     smearing contrib. (-TS)   =      -0.00064664 Ry
     internal energy E=F+TS    =     -93.30807377 Ry

     The total energy is F=E-TS. E is the sum of the following terms:
     one-electron contribution =     -81.30451794 Ry
     hartree contribution      =      42.03985771 Ry
     xc contribution           =     -12.40941456 Ry
     ewald contribution        =      29.60057362 Ry
     one-center paw contrib.   =     -71.23457261 Ry
      -> PAW hartree energy AE =       7.35569532 Ry
      -> PAW hartree energy PS =      -7.32914418 Ry
      -> PAW xc energy AE      =     -82.30945025 Ry
      -> PAW xc energy PS      =      11.04832649 Ry
      -> total E_H with PAW    =      42.06640886 Ry
      -> total E_XC with PAW   =     -83.67053831 Ry

     convergence has been achieved in  16 iterations

     negative rho (up, down):  5.803E-06 0.000E+00

     Forces acting on atoms (cartesian axes, Ry/au):

     atom    1 type  1   force =    -0.00008264   -0.00008929    0.00000000
     atom    2 type  1   force =     0.00008264    0.00008929    0.00000000
     The non-local contrib.  to forces
     atom    1 type  1   force =    -0.00007076   -0.00005439    0.00000000
     atom    2 type  1   force =     0.00006998    0.00005469    0.00000000
     The ionic contribution  to forces
     atom    1 type  1   force =    -0.00015791   -0.00011203   -0.00000000
     atom    2 type  1   force =     0.00015791    0.00011203   -0.00000000
     The local contribution  to forces
     atom    1 type  1   force =     0.00013807    0.00007194    0.00000000
     atom    2 type  1   force =    -0.00013847   -0.00007190    0.00000000
     The core correction contribution to forces
     atom    1 type  1   force =     0.00000816    0.00000637    0.00000000
     atom    2 type  1   force =    -0.00000812   -0.00000638    0.00000000
     The Hubbard contrib.    to forces
     atom    1 type  1   force =     0.00000000    0.00000000    0.00000000
     atom    2 type  1   force =     0.00000000    0.00000000    0.00000000
     The SCF correction term to forces
     atom    1 type  1   force =    -0.00000077   -0.00000101    0.00000000
     atom    2 type  1   force =     0.00000079    0.00000104    0.00000000

     Total force =     0.000172     Total SCF correction =     0.000002


     Computing stress (Cartesian axis) and pressure


     negative rho (up, down):  5.803E-06 0.000E+00
          total   stress  (Ry/bohr**3)                   (kbar)     P=       47.52
   0.00048458   0.00000010   0.00000000           71.28        0.01        0.00
   0.00000010   0.00048441   0.00000000            0.01       71.26        0.00
   0.00000000   0.00000000   0.00000004            0.00        0.00        0.01

     kinetic stress (kbar)    424.26     -0.01      0.00
                               -0.01    424.28      0.00
                                0.00      0.00    504.14

     local   stress (kbar)  -9456.98     -0.05     -0.00
                               -0.05  -9456.85     -0.00
                               -0.00     -0.00   9724.50

     nonloc. stress (kbar)    358.64      0.01      0.00
                                0.01    358.62      0.00
                                0.00      0.00    287.07

     hartree stress (kbar)   4395.46      0.01      0.00
                                0.01   4395.45      0.00
                                0.00      0.00  -4347.89

     exc-cor stress (kbar)    573.08      0.00      0.00
                                0.00    573.08     -0.00
                                0.00     -0.00    565.37

     corecor stress (kbar)   -772.40     -0.00      0.00
                               -0.00   -772.39      0.00
                                0.00      0.00   -763.25

     ewald   stress (kbar)   4549.22      0.06     -0.00
                                0.06   4549.07     -0.00
                               -0.00     -0.00  -5969.93

     hubbard stress (kbar)      0.00      0.00      0.00
                                0.00      0.00      0.00
                                0.00      0.00      0.00

     DFT-D   stress (kbar)      0.00      0.00      0.00
                                0.00      0.00      0.00
                                0.00      0.00      0.00

     XDM     stress (kbar)      0.00      0.00      0.00
                                0.00      0.00      0.00
                                0.00      0.00      0.00

     dft-nl  stress (kbar)      0.00      0.00      0.00
                                0.00      0.00      0.00
                                0.00      0.00      0.00

     TS-vdW  stress (kbar)      0.00      0.00      0.00
                                0.00      0.00      0.00
                                0.00      0.00      0.00



     Writing output data file ./outputs/si.slab.save/

     init_run     :      5.10s CPU      5.54s WALL (       1 calls)
     electrons    :    262.67s CPU    289.15s WALL (       1 calls)
     forces       :      3.68s CPU      4.10s WALL (       1 calls)
     stress       :     10.85s CPU     12.28s WALL (       1 calls)

     Called by init_run:
     wfcinit      :      1.85s CPU      1.86s WALL (       1 calls)
     wfcinit:atom :      0.04s CPU      0.04s WALL (      20 calls)
     wfcinit:wfcr :      1.62s CPU      1.62s WALL (      20 calls)
     potinit      :      0.99s CPU      1.05s WALL (       1 calls)
     hinit0       :      1.29s CPU      1.30s WALL (       1 calls)

     Called by electrons:
     c_bands      :    148.64s CPU    149.20s WALL (      16 calls)
     sum_band     :     35.09s CPU     52.50s WALL (      16 calls)
     v_of_rho     :      7.27s CPU      7.70s WALL (      17 calls)
     v_h          :      0.49s CPU      0.49s WALL (      17 calls)
     v_xc         :      7.53s CPU      7.99s WALL (      19 calls)
     newd         :     15.55s CPU     23.71s WALL (      17 calls)
     PAW_pot      :      3.13s CPU      3.13s WALL (      17 calls)
     mix_rho      :     53.66s CPU     53.97s WALL (      16 calls)

     Called by c_bands:
     init_us_2    :      2.66s CPU      2.67s WALL (     700 calls)
     ccgdiagg     :    117.85s CPU    118.30s WALL (     320 calls)
     wfcrot       :     30.79s CPU     30.89s WALL (     320 calls)

     Called by sum_band:
     sum_band:wei :      0.00s CPU      0.00s WALL (      16 calls)
     sum_band:loo :     14.74s CPU     14.78s WALL (      16 calls)
     sum_band:buf :      0.13s CPU      0.13s WALL (     320 calls)
     sum_band:ini :      1.23s CPU      1.23s WALL (     320 calls)
     sum_band:cal :      3.25s CPU      3.26s WALL (     320 calls)
     sum_band:bec :      0.00s CPU      0.00s WALL (     320 calls)
     addusdens    :     19.42s CPU     36.77s WALL (      16 calls)
     addusd:skk   :      0.04s CPU      0.04s WALL (      16 calls)
     addusd:dgemm :      6.23s CPU     22.21s WALL (      16 calls)
     addusd:qvan2 :     11.84s CPU     11.87s WALL (      16 calls)

     Called by *cgdiagg:
     h_psi        :    107.56s CPU    107.99s WALL (    7734 calls)
     s_psi        :     22.93s CPU     23.02s WALL (   15148 calls)

     Called by h_psi:
     h_psi:calbec :     13.57s CPU     13.64s WALL (    7734 calls)
     vloc_psi     :     79.89s CPU     80.22s WALL (    7734 calls)
     add_vuspsi   :     13.66s CPU     13.71s WALL (    7734 calls)
     hs_1psi      :     92.20s CPU     92.55s WALL (    7414 calls)
     s_1psi       :     19.59s CPU     19.64s WALL (    7414 calls)

     General routines
     calbec       :     27.25s CPU     27.37s WALL (   15568 calls)
     fft          :      5.92s CPU      5.93s WALL (     244 calls)
     ffts         :     27.04s CPU     27.16s WALL (    5228 calls)
     fftw         :     75.31s CPU     75.62s WALL (   22508 calls)
     interpolate  :      0.51s CPU      0.51s WALL (      17 calls)

     Parallel routines

     PAW routines
     PAW_pot      :      3.13s CPU      3.13s WALL (      17 calls)
     PAW_symme    :      0.00s CPU      0.00s WALL (      33 calls)

     PWSCF        :   4m42.35s CPU   5m11.22s WALL


   This run was terminated on:  14:57:13  22Oct2024            

=------------------------------------------------------------------------------=
   JOB DONE.
=------------------------------------------------------------------------------=
