
     Program PWSCF v.6.7MaX starts on 22Oct2024 at 15: 9:48 

     This program is part of the open-source Quantum ESPRESSO suite
     for quantum simulation of materials; please cite
         "P. Giannozzi et al., J. Phys.:Condens. Matter 21 395502 (2009);
         "P. Giannozzi et al., J. Phys.:Condens. Matter 29 465901 (2017);
          URL http://www.quantum-espresso.org", 
     in publications or presentations arising from this work. More details at
     http://www.quantum-espresso.org/quote

     Parallel version (MPI), running on     1 processors

     MPI processes distributed on     1 nodes
     Waiting for input...
     Reading input from standard input

     Current dimensions of program PWSCF are:
     Max number of different atomic species (ntypx) = 10
     Max number of k-points (npk) =  40000
     Max angular momentum in pseudopotentials (lmaxx) =  3
     file Si.pbe-n-kjpaw_psl.1.0.0.UPF: wavefunction(s)  3S 3P renormalized

     Subspace diagonalization in iterative solution of the eigenvalue problem:
     a serial algorithm will be used

     Message from routine setup:
     using ibrav=0 with symmetry is DISCOURAGED, use correct ibrav instead

     G-vector sticks info
     --------------------
     sticks:   dense  smooth     PW     G-vecs:    dense   smooth      PW
     Sum        3145    1573    451               714197   252565   38631


     Title: 
     si.slab                                                                    


     bravais-lattice index     =            0
     lattice parameter (alat)  =       7.5589  a.u.
     unit-cell volume          =    1870.1100 (a.u.)^3
     number of atoms/cell      =            2
     number of atomic types    =            1
     number of electrons       =         8.00
     number of Kohn-Sham states=            8
     kinetic-energy cutoff     =     100.0000  Ry
     charge density cutoff     =     800.0000  Ry
     scf convergence threshold =      1.0E-08
     mixing beta               =       0.3000
     number of iterations used =            8  local-TF  mixing
     Exchange-correlation= SLA  PW   PBX  PBC
                           (   1   4   3   4   0   0   0)

     celldm(1)=   7.558920  celldm(2)=   0.000000  celldm(3)=   0.000000
     celldm(4)=   0.000000  celldm(5)=   0.000000  celldm(6)=   0.000000

     crystal axes: (cart. coord. in units of alat)
               a(1) = (   1.000000   0.000000   0.000000 )  
               a(2) = (   0.500000   0.866000   0.000000 )  
               a(3) = (   0.000000   0.000000   5.000000 )  

     reciprocal axes: (cart. coord. in units 2 pi/alat)
               b(1) = (  1.000000 -0.577367  0.000000 )  
               b(2) = (  0.000000  1.154734  0.000000 )  
               b(3) = (  0.000000  0.000000  0.200000 )  


     PseudoPot. # 1 for Si read from file:
     /home/ayan/pseudo_directory/Si.pbe-n-kjpaw_psl.1.0.0.UPF
     MD5 check sum: c39c59da582df4a0d9f10159256ea34e
     Pseudo is Projector augmented-wave + core cor, Zval =  4.0
     Generated using &quot;atomic&quot; code by A. Dal Corso  v.6.3
     Shape of augmentation charge: PSQ
     Using radial grid of 1141 points,  6 beta functions with: 
                l(1) =   0
                l(2) =   0
                l(3) =   1
                l(4) =   1
                l(5) =   2
                l(6) =   2
     Q(r) pseudized with 0 coefficients 


     atomic species   valence    mass     pseudopotential
        Si             4.00    28.08500     Si( 1.00)

      2 Sym. Ops. (no inversion) found


                                    s                        frac. trans.

      isym =  1     identity                                     

 cryst.   s( 1) = (     1          0          0      )
                  (     0          1          0      )
                  (     0          0          1      )

 cart.    s( 1) = (  1.0000000  0.0000000  0.0000000 )
                  (  0.0000000  1.0000000  0.0000000 )
                  (  0.0000000  0.0000000  1.0000000 )


      isym =  2     inv. 180 deg rotation - cart. axis [0,0,1]   

 cryst.   s( 2) = (     1          0          0      )
                  (     0          1          0      )
                  (     0          0         -1      )

 cart.    s( 2) = (  1.0000000  0.0000000  0.0000000 )
                  (  0.0000000  1.0000000  0.0000000 )
                  (  0.0000000  0.0000000 -1.0000000 )


   Cartesian axes

     site n.     atom                  positions (alat units)
         1           Si  tau(   1) = (   0.0000000   0.0000000   0.0000000  )
         2           Si  tau(   2) = (   0.4999800   0.2886378   0.0000000  )

   Crystallographic axes

     site n.     atom                  positions (cryst. coord.)
         1           Si  tau(   1) = (  0.0000000  0.0000000  0.0000000  )
         2           Si  tau(   2) = (  0.3333300  0.3333000  0.0000000  )

     number of k points=    20  Methfessel-Paxton smearing, width (Ry)=  0.0300
                       cart. coord. in units 2pi/alat
        k(    1) = (   0.0000000   0.0000000   0.0000000), wk =   0.0555556
        k(    2) = (   0.0000000   0.1924557   0.0000000), wk =   0.1111111
        k(    3) = (   0.0000000   0.3849115   0.0000000), wk =   0.1111111
        k(    4) = (   0.0000000  -0.5773672   0.0000000), wk =   0.0555556
        k(    5) = (   0.1666667  -0.0962279   0.0000000), wk =   0.1111111
        k(    6) = (   0.1666667   0.2886836   0.0000000), wk =   0.1111111
        k(    7) = (   0.1666667  -0.6735951   0.0000000), wk =   0.1111111
        k(    8) = (   0.3333333  -0.1924557   0.0000000), wk =   0.1111111
        k(    9) = (   0.3333333   0.0000000   0.0000000), wk =   0.1111111
        k(   10) = (   0.3333333  -0.7698229   0.0000000), wk =   0.1111111
        k(   11) = (   0.3333333  -0.5773672   0.0000000), wk =   0.1111111
        k(   12) = (  -0.5000000   0.2886836   0.0000000), wk =   0.0555556
        k(   13) = (  -0.5000000   0.4811393   0.0000000), wk =   0.1111111
        k(   14) = (  -0.1666667  -0.0962279   0.0000000), wk =   0.1111111
        k(   15) = (  -0.1666667   0.2886836   0.0000000), wk =   0.1111111
        k(   16) = (  -0.1666667  -0.6735951   0.0000000), wk =   0.1111111
        k(   17) = (  -0.3333333  -0.1924557   0.0000000), wk =   0.1111111
        k(   18) = (  -0.3333333  -0.7698229   0.0000000), wk =   0.1111111
        k(   19) = (   0.5000000   0.2886836   0.0000000), wk =   0.0555556
        k(   20) = (   0.5000000   0.4811393   0.0000000), wk =   0.1111111

                       cryst. coord.
        k(    1) = (   0.0000000   0.0000000   0.0000000), wk =   0.0555556
        k(    2) = (   0.0000000   0.1666667   0.0000000), wk =   0.1111111
        k(    3) = (   0.0000000   0.3333333   0.0000000), wk =   0.1111111
        k(    4) = (   0.0000000  -0.5000000   0.0000000), wk =   0.0555556
        k(    5) = (   0.1666667   0.0000000   0.0000000), wk =   0.1111111
        k(    6) = (   0.1666667   0.3333333   0.0000000), wk =   0.1111111
        k(    7) = (   0.1666667  -0.5000000   0.0000000), wk =   0.1111111
        k(    8) = (   0.3333333   0.0000000   0.0000000), wk =   0.1111111
        k(    9) = (   0.3333333   0.1666667   0.0000000), wk =   0.1111111
        k(   10) = (   0.3333333  -0.5000000   0.0000000), wk =   0.1111111
        k(   11) = (   0.3333333  -0.3333333   0.0000000), wk =   0.1111111
        k(   12) = (  -0.5000000  -0.0000000   0.0000000), wk =   0.0555556
        k(   13) = (  -0.5000000   0.1666667   0.0000000), wk =   0.1111111
        k(   14) = (  -0.1666667  -0.1666667   0.0000000), wk =   0.1111111
        k(   15) = (  -0.1666667   0.1666667   0.0000000), wk =   0.1111111
        k(   16) = (  -0.1666667  -0.6666667   0.0000000), wk =   0.1111111
        k(   17) = (  -0.3333333  -0.3333333   0.0000000), wk =   0.1111111
        k(   18) = (  -0.3333333  -0.8333333   0.0000000), wk =   0.1111111
        k(   19) = (   0.5000000   0.5000000   0.0000000), wk =   0.0555556
        k(   20) = (   0.5000000   0.6666667   0.0000000), wk =   0.1111111

     Dense  grid:   714197 G-vectors     FFT dimensions: (  72,  72, 360)

     Smooth grid:   252565 G-vectors     FFT dimensions: (  50,  50, 243)

     Dynamical RAM for                 wfc:       3.85 MB

     Dynamical RAM for     wfc (w. buffer):      80.95 MB

     Dynamical RAM for           str. fact:      10.90 MB

     Dynamical RAM for           local pot:       0.00 MB

     Dynamical RAM for          nlocal pot:      17.35 MB

     Dynamical RAM for                qrad:       2.27 MB

     Dynamical RAM for          rho,v,vnew:      75.41 MB

     Dynamical RAM for               rhoin:      25.14 MB

     Dynamical RAM for            rho*nmix:     174.36 MB

     Dynamical RAM for           G-vectors:      42.79 MB

     Dynamical RAM for          h,s,v(r/c):       0.00 MB

     Dynamical RAM for          <psi|beta>:       0.00 MB

     Dynamical RAM for      wfcinit/wfcrot:       7.71 MB

     Dynamical RAM for           addusdens:    2048.78 MB

     Dynamical RAM for          addusforce:    2076.04 MB

     Dynamical RAM for         addusstress:    2190.45 MB

     Estimated static dynamical RAM per process >     522.16 MB

     Estimated max dynamical RAM per process >       2.65 GB

     Initial potential from superposition of free atoms

     starting charge    7.99888, renormalised to    8.00000

     negative rho (up, down):  7.577E-05 0.000E+00
     Starting wfcs are    8 randomized atomic wfcs
     Checking if some PAW data can be deallocated... 

     total cpu time spent up to now is        7.2 secs

     Self-consistent Calculation

     iteration #  1     ecut=   100.00 Ry     beta= 0.30
     CG style diagonalization
     ethr =  1.00E-02,  avg # of iterations =  3.9

     Threshold (ethr) on eigenvalues was too large:
     Diagonalizing with lowered threshold

     CG style diagonalization
     ethr =  6.47E-04,  avg # of iterations =  2.3

     negative rho (up, down):  5.616E-08 0.000E+00

     total cpu time spent up to now is       47.1 secs

     total energy              =     -93.35893212 Ry
     estimated scf accuracy    <       0.05088652 Ry

     iteration #  2     ecut=   100.00 Ry     beta= 0.30
     CG style diagonalization
     ethr =  6.36E-04,  avg # of iterations =  3.0

     total cpu time spent up to now is       63.1 secs

     total energy              =     -93.34812637 Ry
     estimated scf accuracy    <       0.03480577 Ry

     iteration #  3     ecut=   100.00 Ry     beta= 0.30
     CG style diagonalization
     ethr =  4.35E-04,  avg # of iterations =  3.0

     total cpu time spent up to now is       78.8 secs

     total energy              =     -93.35134642 Ry
     estimated scf accuracy    <       0.00248560 Ry

     iteration #  4     ecut=   100.00 Ry     beta= 0.30
     CG style diagonalization
     c_bands:  1 eigenvalues not converged
     c_bands:  1 eigenvalues not converged
     ethr =  3.11E-05,  avg # of iterations =  4.4

     total cpu time spent up to now is       98.3 secs

     total energy              =     -93.35052373 Ry
     estimated scf accuracy    <       0.00310159 Ry

     iteration #  5     ecut=   100.00 Ry     beta= 0.30
     CG style diagonalization
     ethr =  3.11E-05,  avg # of iterations =  3.2

     total cpu time spent up to now is      114.5 secs

     total energy              =     -93.35063244 Ry
     estimated scf accuracy    <       0.00041136 Ry

     iteration #  6     ecut=   100.00 Ry     beta= 0.30
     CG style diagonalization
     c_bands:  1 eigenvalues not converged
     c_bands:  1 eigenvalues not converged
     ethr =  5.14E-06,  avg # of iterations =  4.1

     negative rho (up, down):  1.816E-03 0.000E+00

     total cpu time spent up to now is      135.6 secs

     total energy              =     -93.35064737 Ry
     estimated scf accuracy    <       0.00034090 Ry

     iteration #  7     ecut=   100.00 Ry     beta= 0.30
     CG style diagonalization
     ethr =  4.26E-06,  avg # of iterations =  3.4

     negative rho (up, down):  2.961E-04 0.000E+00

     total cpu time spent up to now is      155.6 secs

     total energy              =     -93.35065015 Ry
     estimated scf accuracy    <       0.00010411 Ry

     iteration #  8     ecut=   100.00 Ry     beta= 0.30
     CG style diagonalization
     c_bands:  1 eigenvalues not converged
     ethr =  1.30E-06,  avg # of iterations =  3.7

     negative rho (up, down):  1.915E-03 0.000E+00

     total cpu time spent up to now is      176.2 secs

     total energy              =     -93.35068637 Ry
     estimated scf accuracy    <       0.00010224 Ry

     iteration #  9     ecut=   100.00 Ry     beta= 0.30
     CG style diagonalization
     ethr =  1.28E-06,  avg # of iterations =  3.4

     negative rho (up, down):  4.474E-04 0.000E+00

     total cpu time spent up to now is      196.9 secs

     total energy              =     -93.35070035 Ry
     estimated scf accuracy    <       0.00002240 Ry

     iteration # 10     ecut=   100.00 Ry     beta= 0.30
     CG style diagonalization
     ethr =  2.80E-07,  avg # of iterations =  3.5

     negative rho (up, down):  6.915E-04 0.000E+00

     total cpu time spent up to now is      217.9 secs

     total energy              =     -93.35070819 Ry
     estimated scf accuracy    <       0.00000710 Ry

     iteration # 11     ecut=   100.00 Ry     beta= 0.30
     CG style diagonalization
     ethr =  8.87E-08,  avg # of iterations =  3.3

     negative rho (up, down):  4.240E-05 0.000E+00

     total cpu time spent up to now is      247.2 secs

     total energy              =     -93.35070947 Ry
     estimated scf accuracy    <       0.00000120 Ry

     iteration # 12     ecut=   100.00 Ry     beta= 0.30
     CG style diagonalization
     ethr =  1.50E-08,  avg # of iterations =  3.7

     negative rho (up, down):  3.588E-05 0.000E+00

     total cpu time spent up to now is      274.8 secs

     total energy              =     -93.35070987 Ry
     estimated scf accuracy    <       0.00000023 Ry

     iteration # 13     ecut=   100.00 Ry     beta= 0.30
     CG style diagonalization
     ethr =  2.86E-09,  avg # of iterations =  3.5

     negative rho (up, down):  1.247E-05 0.000E+00

     total cpu time spent up to now is      303.5 secs

     total energy              =     -93.35071003 Ry
     estimated scf accuracy    <       0.00000004 Ry

     iteration # 14     ecut=   100.00 Ry     beta= 0.30
     CG style diagonalization
     ethr =  5.43E-10,  avg # of iterations =  3.5

     negative rho (up, down):  1.575E-05 0.000E+00

     total cpu time spent up to now is      338.5 secs

     total energy              =     -93.35070993 Ry
     estimated scf accuracy    <       0.00000004 Ry

     iteration # 15     ecut=   100.00 Ry     beta= 0.30
     CG style diagonalization
     ethr =  5.43E-10,  avg # of iterations =  3.1

     negative rho (up, down):  6.398E-06 0.000E+00

     total cpu time spent up to now is      353.5 secs

     End of self-consistent calculation

          k = 0.0000 0.0000 0.0000 ( 31405 PWs)   bands (ev):

   -14.0713  -5.8660  -4.8511  -4.8500  -2.3920  -0.5402  -0.5393   0.2191

     occupation numbers 
     1.0000   1.0000   1.0000   1.0000  -0.0337  -0.0000  -0.0000  -0.0000

          k = 0.0000 0.1925 0.0000 ( 31509 PWs)   bands (ev):

   -13.7744  -6.6675  -5.5765  -5.2611  -1.6190   0.1685   0.4765   1.2150

     occupation numbers 
     1.0000   1.0000   1.0000   1.0000  -0.0000  -0.0000  -0.0000  -0.0000

          k = 0.0000 0.3849 0.0000 ( 31599 PWs)   bands (ev):

   -12.9248  -8.9988  -5.8448  -4.7484  -2.2119  -0.9390   1.5431   2.8794

     occupation numbers 
     1.0000   1.0000   1.0000   1.0000  -0.0152  -0.0000  -0.0000  -0.0000

          k = 0.0000-0.5774 0.0000 ( 31628 PWs)   bands (ev):

   -12.0506 -10.3958  -6.0741  -3.9010  -2.4912  -2.2737   2.8360   3.3787

     occupation numbers 
     1.0000   1.0000   1.0000   1.0021  -0.0324  -0.0217  -0.0000  -0.0000

          k = 0.1667-0.0962 0.0000 ( 31509 PWs)   bands (ev):

   -13.7744  -6.6678  -5.5765  -5.2607  -1.6186   0.1683   0.4764   1.2143

     occupation numbers 
     1.0000   1.0000   1.0000   1.0000  -0.0000  -0.0000  -0.0000  -0.0000

          k = 0.1667 0.2887 0.0000 ( 31560 PWs)   bands (ev):

   -13.1958  -8.2713  -6.1713  -5.0125  -0.4163  -0.2868  -0.2615   1.2174

     occupation numbers 
     1.0000   1.0000   1.0000   1.0000  -0.0000  -0.0000  -0.0000  -0.0000

          k = 0.1667-0.6736 0.0000 ( 31600 PWs)   bands (ev):

   -12.1577 -10.0324  -6.9006  -4.0047  -1.9496  -0.8095   2.0731   2.2862

     occupation numbers 
     1.0000   1.0000   1.0000   1.0007  -0.0016  -0.0000  -0.0000  -0.0000

          k = 0.3333-0.1925 0.0000 ( 31599 PWs)   bands (ev):

   -12.9248  -8.9992  -5.8444  -4.7485  -2.2114  -0.9393   1.5430   2.8669

     occupation numbers 
     1.0000   1.0000   1.0000   1.0000  -0.0152  -0.0000  -0.0000  -0.0000

          k = 0.3333 0.0000 0.0000 ( 31560 PWs)   bands (ev):

   -13.1958  -8.2716  -6.1711  -5.0125  -0.4161  -0.2869  -0.2610   1.2173

     occupation numbers 
     1.0000   1.0000   1.0000   1.0000  -0.0000  -0.0000  -0.0000  -0.0000

          k = 0.3333-0.7698 0.0000 ( 31600 PWs)   bands (ev):

   -12.1575 -10.0329  -6.9002  -4.0046  -1.9500  -0.8086   2.0733   2.2869

     occupation numbers 
     1.0000   1.0000   1.0000   1.0007  -0.0016  -0.0000  -0.0000  -0.0000

          k = 0.3333-0.5774 0.0000 ( 31632 PWs)   bands (ev):

   -11.0849 -11.0844  -7.6231  -2.9741  -2.9737   1.2211   2.0749   2.0752

     occupation numbers 
     1.0000   1.0000   1.0000   0.5735   0.5727  -0.0000  -0.0000  -0.0000

          k =-0.5000 0.2887 0.0000 ( 31628 PWs)   bands (ev):

   -12.0505 -10.3962  -6.0737  -3.9010  -2.4907  -2.2740   2.8359   3.3784

     occupation numbers 
     1.0000   1.0000   1.0000   1.0021  -0.0325  -0.0218  -0.0000  -0.0000

          k =-0.5000 0.4811 0.0000 ( 31600 PWs)   bands (ev):

   -12.1577 -10.0327  -6.9003  -4.0047  -1.9498  -0.8088   2.0732   2.2874

     occupation numbers 
     1.0000   1.0000   1.0000   1.0007  -0.0016  -0.0000  -0.0000  -0.0000

          k =-0.1667-0.0962 0.0000 ( 31509 PWs)   bands (ev):

   -13.7744  -6.6682  -5.5765  -5.2602  -1.6183   0.1684   0.4760   1.2146

     occupation numbers 
     1.0000   1.0000   1.0000   1.0000  -0.0000  -0.0000  -0.0000  -0.0000

          k =-0.1667 0.2887 0.0000 ( 31560 PWs)   bands (ev):

   -13.1958  -8.2710  -6.1717  -5.0126  -0.4161  -0.2866  -0.2621   1.2174

     occupation numbers 
     1.0000   1.0000   1.0000   1.0000  -0.0000  -0.0000  -0.0000  -0.0000

          k =-0.1667-0.6736 0.0000 ( 31600 PWs)   bands (ev):

   -12.1578 -10.0322  -6.9007  -4.0048  -1.9495  -0.8095   2.0728   2.2861

     occupation numbers 
     1.0000   1.0000   1.0000   1.0007  -0.0016  -0.0000  -0.0000  -0.0000

          k =-0.3333-0.1925 0.0000 ( 31599 PWs)   bands (ev):

   -12.9247  -8.9995  -5.8441  -4.7484  -2.2110  -0.9395   1.5430   2.8695

     occupation numbers 
     1.0000   1.0000   1.0000   1.0000  -0.0151  -0.0000  -0.0000  -0.0000

          k =-0.3333-0.7698 0.0000 ( 31600 PWs)   bands (ev):

   -12.1577 -10.0325  -6.9005  -4.0048  -1.9497  -0.8089   2.0729   2.2848

     occupation numbers 
     1.0000   1.0000   1.0000   1.0007  -0.0016  -0.0000  -0.0000  -0.0000

          k = 0.5000 0.2887 0.0000 ( 31628 PWs)   bands (ev):

   -12.0502 -10.3968  -6.0734  -3.9007  -2.4904  -2.2745   2.8360   3.3782

     occupation numbers 
     1.0000   1.0000   1.0000   1.0021  -0.0325  -0.0218  -0.0000  -0.0000

          k = 0.5000 0.4811 0.0000 ( 31600 PWs)   bands (ev):

   -12.1575 -10.0330  -6.9002  -4.0046  -1.9500  -0.8085   2.0734   2.2879

     occupation numbers 
     1.0000   1.0000   1.0000   1.0007  -0.0016  -0.0000  -0.0000  -0.0000

     the Fermi energy is    -2.9385 ev

!    total energy              =     -93.35070996 Ry

     total all-electron energy =     -1160.042440 Ry
     estimated scf accuracy    <          1.3E-09 Ry
     smearing contrib. (-TS)   =       0.00016257 Ry
     internal energy E=F+TS    =     -93.35087253 Ry

     The total energy is F=E-TS. E is the sum of the following terms:
     one-electron contribution =     -76.02283795 Ry
     hartree contribution      =      39.10802550 Ry
     xc contribution           =     -12.08471427 Ry
     ewald contribution        =      26.82551984 Ry
     one-center paw contrib.   =     -71.17686566 Ry
      -> PAW hartree energy AE =       5.46839292 Ry
      -> PAW hartree energy PS =      -5.44611185 Ry
      -> PAW xc energy AE      =     -81.55830542 Ry
      -> PAW xc energy PS      =      10.35915869 Ry
      -> total E_H with PAW    =      39.13030657 Ry
      -> total E_XC with PAW   =     -83.28386100 Ry

     convergence has been achieved in  15 iterations

     negative rho (up, down):  6.398E-06 0.000E+00

     Forces acting on atoms (cartesian axes, Ry/au):

     atom    1 type  1   force =    -0.00004211   -0.00005406    0.00000000
     atom    2 type  1   force =     0.00004211    0.00005406    0.00000000
     The non-local contrib.  to forces
     atom    1 type  1   force =    -0.00004168   -0.00002860    0.00000000
     atom    2 type  1   force =     0.00004023    0.00002965    0.00000000
     The ionic contribution  to forces
     atom    1 type  1   force =    -0.00012969   -0.00009201   -0.00000000
     atom    2 type  1   force =     0.00012969    0.00009201   -0.00000000
     The local contribution  to forces
     atom    1 type  1   force =     0.00012573    0.00006424    0.00000000
     atom    2 type  1   force =    -0.00012531   -0.00006391    0.00000000
     The core correction contribution to forces
     atom    1 type  1   force =     0.00000483    0.00000342    0.00000000
     atom    2 type  1   force =    -0.00000487   -0.00000348    0.00000000
     The Hubbard contrib.    to forces
     atom    1 type  1   force =     0.00000000    0.00000000    0.00000000
     atom    2 type  1   force =     0.00000000    0.00000000    0.00000000
     The SCF correction term to forces
     atom    1 type  1   force =    -0.00000226   -0.00000059    0.00000000
     atom    2 type  1   force =     0.00000142    0.00000031    0.00000000

     Total force =     0.000097     Total SCF correction =     0.000003


     Computing stress (Cartesian axis) and pressure


     negative rho (up, down):  6.398E-06 0.000E+00
          total   stress  (Ry/bohr**3)                   (kbar)     P=       -8.77
  -0.00008944   0.00000002   0.00000000          -13.16        0.00        0.00
   0.00000002  -0.00008944   0.00000000            0.00      -13.16        0.00
   0.00000000   0.00000000  -0.00000002            0.00        0.00       -0.00

     kinetic stress (kbar)    274.93     -0.01      0.00
                               -0.01    274.95      0.00
                                0.00      0.00    354.16

     local   stress (kbar)  -6487.73     -0.04      0.00
                               -0.04  -6487.63     -0.00
                                0.00     -0.00   6590.45

     nonloc. stress (kbar)    239.18      0.00      0.00
                                0.00    239.17      0.00
                                0.00      0.00    207.86

     hartree stress (kbar)   3030.96      0.01     -0.00
                                0.01   3030.95      0.00
                               -0.00      0.00  -2985.63

     exc-cor stress (kbar)    431.68      0.00      0.00
                                0.00    431.68     -0.00
                                0.00     -0.00    427.04

     corecor stress (kbar)   -570.70     -0.00      0.00
                               -0.00   -570.70     -0.00
                                0.00     -0.00   -567.07

     ewald   stress (kbar)   3068.52      0.04     -0.00
                                0.04   3068.42     -0.00
                               -0.00     -0.00  -4026.81

     hubbard stress (kbar)      0.00      0.00      0.00
                                0.00      0.00      0.00
                                0.00      0.00      0.00

     DFT-D   stress (kbar)      0.00      0.00      0.00
                                0.00      0.00      0.00
                                0.00      0.00      0.00

     XDM     stress (kbar)      0.00      0.00      0.00
                                0.00      0.00      0.00
                                0.00      0.00      0.00

     dft-nl  stress (kbar)      0.00      0.00      0.00
                                0.00      0.00      0.00
                                0.00      0.00      0.00

     TS-vdW  stress (kbar)      0.00      0.00      0.00
                                0.00      0.00      0.00
                                0.00      0.00      0.00



     Writing output data file ./outputs/si.slab.save/

     init_run     :      6.74s CPU      7.08s WALL (       1 calls)
     electrons    :    334.22s CPU    346.41s WALL (       1 calls)
     forces       :      4.97s CPU      5.23s WALL (       1 calls)
     stress       :     13.77s CPU     14.80s WALL (       1 calls)

     Called by init_run:
     wfcinit      :      3.07s CPU      3.11s WALL (       1 calls)
     wfcinit:atom :      0.06s CPU      0.06s WALL (      20 calls)
     wfcinit:wfcr :      2.73s CPU      2.77s WALL (      20 calls)
     potinit      :      1.21s CPU      1.26s WALL (       1 calls)
     hinit0       :      1.25s CPU      1.25s WALL (       1 calls)

     Called by electrons:
     c_bands      :    173.11s CPU    173.54s WALL (      16 calls)
     sum_band     :     46.09s CPU     52.72s WALL (      16 calls)
     v_of_rho     :      8.18s CPU      8.58s WALL (      16 calls)
     v_h          :      0.63s CPU      0.64s WALL (      16 calls)
     v_xc         :      8.49s CPU      8.97s WALL (      18 calls)
     newd         :     17.59s CPU     22.16s WALL (      16 calls)
     PAW_pot      :      2.79s CPU      2.79s WALL (      16 calls)
     mix_rho      :     87.31s CPU     87.67s WALL (      16 calls)

     Called by c_bands:
     init_us_2    :      3.36s CPU      3.38s WALL (     700 calls)
     ccgdiagg     :    134.49s CPU    134.86s WALL (     320 calls)
     wfcrot       :     39.42s CPU     39.50s WALL (     300 calls)

     Called by sum_band:
     sum_band:wei :      0.00s CPU      0.00s WALL (      16 calls)
     sum_band:loo :     20.06s CPU     20.11s WALL (      16 calls)
     sum_band:buf :      0.13s CPU      0.14s WALL (     320 calls)
     sum_band:ini :      1.52s CPU      1.52s WALL (     320 calls)
     sum_band:cal :      4.24s CPU      4.25s WALL (     320 calls)
     sum_band:bec :      0.00s CPU      0.00s WALL (     320 calls)
     addusdens    :     24.89s CPU     31.45s WALL (      16 calls)
     addusd:skk   :      0.06s CPU      0.07s WALL (      16 calls)
     addusd:dgemm :      8.37s CPU     14.40s WALL (      16 calls)
     addusd:qvan2 :     14.83s CPU     14.84s WALL (      16 calls)

     Called by *cgdiagg:
     h_psi        :    127.41s CPU    127.73s WALL (    6883 calls)
     s_psi        :     26.13s CPU     26.22s WALL (   13466 calls)

     Called by h_psi:
     h_psi:calbec :     16.04s CPU     16.07s WALL (    6883 calls)
     vloc_psi     :     95.43s CPU     95.68s WALL (    6883 calls)
     add_vuspsi   :     15.48s CPU     15.51s WALL (    6883 calls)
     hs_1psi      :    105.77s CPU    106.04s WALL (    6583 calls)
     s_1psi       :     22.22s CPU     22.29s WALL (    6583 calls)

     General routines
     calbec       :     32.48s CPU     32.57s WALL (   13886 calls)
     fft          :      6.88s CPU      6.88s WALL (     232 calls)
     ffts         :     42.28s CPU     42.42s WALL (    6250 calls)
     fftw         :     91.82s CPU     92.07s WALL (   20526 calls)
     interpolate  :      0.72s CPU      0.72s WALL (      16 calls)

     Parallel routines

     PAW routines
     PAW_pot      :      2.79s CPU      2.79s WALL (      16 calls)
     PAW_symme    :      0.00s CPU      0.00s WALL (      32 calls)

     PWSCF        :   5m59.81s CPU   6m13.72s WALL


   This run was terminated on:  15:16: 2  22Oct2024            

=------------------------------------------------------------------------------=
   JOB DONE.
=------------------------------------------------------------------------------=
